 Entering Gaussian System, Link 0=g16
 Initial command:
 /mmfs1/apps/gaussian16/c02-avx2/g16/l1.exe "/mmfs1/scratch/dmitri.kilin/G16_scrdir/g16.327114.bright03/Gau-281505.inp" -scrdir="/mmfs1/scratch/dmitri.kilin/G16_scrdir/g16.327114.bright03/"
 Entering Link 1 = /mmfs1/apps/gaussian16/c02-avx2/g16/l1.exe PID=    281508.
  
 Copyright (c) 1988-2021, Gaussian, Inc.  All Rights Reserved.
  
 This is part of the Gaussian(R) 16 program.  It is based on
 the Gaussian(R) 09 system (copyright 2009, Gaussian, Inc.),
 the Gaussian(R) 03 system (copyright 2003, Gaussian, Inc.),
 the Gaussian(R) 98 system (copyright 1998, Gaussian, Inc.),
 the Gaussian(R) 94 system (copyright 1995, Gaussian, Inc.),
 the Gaussian 92(TM) system (copyright 1992, Gaussian, Inc.),
 the Gaussian 90(TM) system (copyright 1990, Gaussian, Inc.),
 the Gaussian 88(TM) system (copyright 1988, Gaussian, Inc.),
 the Gaussian 86(TM) system (copyright 1986, Carnegie Mellon
 University), and the Gaussian 82(TM) system (copyright 1983,
 Carnegie Mellon University). Gaussian is a federally registered
 trademark of Gaussian, Inc.
  
 This software contains proprietary and confidential information,
 including trade secrets, belonging to Gaussian, Inc.
  
 This software is provided under written license and may be
 used, copied, transmitted, or stored only in accord with that
 written license.
  
 The following legend is applicable only to US Government
 contracts under FAR:
  
                    RESTRICTED RIGHTS LEGEND
  
 Use, reproduction and disclosure by the US Government is
 subject to restrictions as set forth in subparagraphs (a)
 and (c) of the Commercial Computer Software - Restricted
 Rights clause in FAR 52.227-19.
  
 Gaussian, Inc.
 340 Quinnipiac St., Bldg. 40, Wallingford CT 06492
  
  
 ---------------------------------------------------------------
 Warning -- This program may not be used in any manner that
 competes with the business of Gaussian, Inc. or will provide
 assistance to any competitor of Gaussian, Inc.  The licensee
 of this program is prohibited from giving any competitor of
 Gaussian, Inc. access to this program.  By using this program,
 the user acknowledges that Gaussian, Inc. is engaged in the
 business of creating and licensing software in the field of
 computational chemistry and represents and warrants to the
 licensee that it is not a competitor of Gaussian, Inc. and that
 it will not use this program in any manner prohibited above.
 ---------------------------------------------------------------
  

 Cite this work as:
 Gaussian 16, Revision C.02,
 M. J. Frisch, G. W. Trucks, H. B. Schlegel, G. E. Scuseria, 
 M. A. Robb, J. R. Cheeseman, G. Scalmani, V. Barone, 
 G. A. Petersson, H. Nakatsuji, X. Li, M. Caricato, A. V. Marenich, 
 J. Bloino, B. G. Janesko, R. Gomperts, B. Mennucci, H. P. Hratchian, 
 J. V. Ortiz, A. F. Izmaylov, J. L. Sonnenberg, D. Williams-Young, 
 F. Ding, F. Lipparini, F. Egidi, J. Goings, B. Peng, A. Petrone, 
 T. Henderson, D. Ranasinghe, V. G. Zakrzewski, J. Gao, N. Rega, 
 G. Zheng, W. Liang, M. Hada, M. Ehara, K. Toyota, R. Fukuda, 
 J. Hasegawa, M. Ishida, T. Nakajima, Y. Honda, O. Kitao, H. Nakai, 
 T. Vreven, K. Throssell, J. A. Montgomery, Jr., J. E. Peralta, 
 F. Ogliaro, M. J. Bearpark, J. J. Heyd, E. N. Brothers, K. N. Kudin, 
 V. N. Staroverov, T. A. Keith, R. Kobayashi, J. Normand, 
 K. Raghavachari, A. P. Rendell, J. C. Burant, S. S. Iyengar, 
 J. Tomasi, M. Cossi, J. M. Millam, M. Klene, C. Adamo, R. Cammi, 
 J. W. Ochterski, R. L. Martin, K. Morokuma, O. Farkas, 
 J. B. Foresman, and D. J. Fox, Gaussian, Inc., Wallingford CT, 2019.
 
 ******************************************
 Gaussian 16:  ES64L-G16RevC.02  7-Dec-2021
                 6-Feb-2023 
 ******************************************
 %mem=54GB
 %nprocshared=32
 Will use up to   32 processors via shared memory.
 %chk=CONTCAR.chk
 ----------------------------------------------------------------------
 #p td=(singlets,nstates=120) geom=check nosymm pbe1pbe/6-31g* scf=maxc
 ycles=500
 ----------------------------------------------------------------------
 1/29=2,38=1,172=1/1;
 2/12=2,15=1,40=1/2;
 3/5=1,6=6,7=1,11=9,14=-4,25=1,30=1,74=-13/1,2,3,8;
 4//1;
 5/5=2,7=500,38=5/2;
 8/6=1,10=2,108=120/1;
 9/41=120,42=1,48=1,70=2/14;
 6/7=2,8=2,9=2,10=2/1;
 99/5=1,9=1/99;
 Leave Link    1 at Mon Feb  6 20:57:48 2023, MaxMem=  7247757312 cpu:               0.1 elap:               0.1
 (Enter /mmfs1/apps/gaussian16/c02-avx2/g16/l101.exe)
 -------
 CONTCAR
 -------
 Structure from the checkpoint file:  "CONTCAR.chk"
 Charge =  0 Multiplicity = 1
 Redundant internal coordinates found in file.  (old form).
 C,0,-7.4510100559,-2.9957932155,-1.855336939
 C,0,-7.9838043218,-1.1012856184,1.0638957328
 C,0,-6.3323300196,-6.1366122483,-1.2050241503
 C,0,-6.9066538428,-4.1324107645,1.286049249
 C,0,-5.5115516396,-5.1966589877,-3.2641190411
 C,0,-6.2913283128,-1.5577434,3.3266829312
 C,0,-5.3120982992,-5.0959539343,-1.7319812899
 C,0,-7.0732016392,1.953774121,0.7286589721
 C,0,-6.482472901,0.0950720203,-2.0430191853
 C,0,-5.7371564284,-3.2498039134,0.7639350478
 C,0,-4.4247139969,-6.6508572254,1.4614834109
 C,0,-3.3775266643,-7.3505860904,-1.7526598126
 C,0,-4.2185972759,-3.9676154581,3.2858194921
 C,0,-4.4826109995,-2.0530215627,-3.3432842388
 C,0,-5.6551051725,1.6954239554,3.1983891174
 C,0,-4.4045541345,-2.057794881,-1.7868340171
 C,0,-4.8690395013,-0.2453160136,0.738793533
 C,0,-3.5105885662,-5.5540832178,0.8308941763
 C,0,-5.6273871934,3.382716025,-1.8811313183
 C,0,-6.1096837325,5.1160247037,1.1955898595
 C,0,-3.8712063621,1.2351561607,-3.3725393636
 C,0,-2.1858244277,-4.682682195,-3.267673592
 C,0,-4.3078422803,4.4651029029,3.4304150092
 C,0,-1.4854276946,-7.8615036441,1.0346415967
 C,0,-2.2142441261,-4.3590632135,-1.7404028138
 C,0,-3.5728059913,1.0505523994,-1.8429252057
 C,0,-3.010816582,-0.4767171755,3.2108518047
 C,0,-2.66293324,-2.5240195555,0.760951168
 C,0,-3.9741337716,2.7704768937,0.7868391816
 C,0,-1.7679252955,-6.186946905,3.3790114653
 C,0,-4.7343277834,6.6232464403,-1.6857371981
 C,0,-2.9029104916,4.4092370004,-3.2827849794
 C,0,-3.6773206946,7.118138582,1.5357305699
 C,0,-1.381684993,-1.2665149,-3.3823482416
 C,0,-0.0518418559,-6.5068019473,-1.7815551727
 C,0,-1.3428922754,-1.2695551184,-1.8212298659
 C,0,-2.6980152275,4.1583847311,-1.7521005882
 C,0,-3.1174098376,5.8112649366,0.8879277112
 C,0,-1.7843825446,0.5092927363,0.6486665761
 C,0,-0.9421246964,-2.8553219114,3.2735530382
 C,0,-0.4337028636,-4.7976589073,0.8305485625
 C,0,-0.6111254918,1.927116504,-3.3966405352
 C,0,-0.4847510834,1.8355860455,-1.8448204973
 C,0,-2.1773298163,8.5713811166,-0.9210468092
 C,0,-1.8021826908,7.2217329913,-1.5783468229
 C,0,0.8548507002,-3.5441332322,-1.7790918685
 C,0,-1.8164741386,7.5741490991,-3.0852990638
 C,0,0.8689902565,-3.7379232964,-3.3279979967
 C,0,-1.4088582285,5.5441090251,3.3680630656
 C,0,-0.9140271147,3.5782771093,0.7668495647
 C,0,0.4324563193,-1.759590571,0.7007934704
 C,0,1.8221404417,-7.0962113137,0.9975890608
 C,0,1.3468666781,-5.6078978527,3.3221546946
 C,0,0.392914597,4.9276043792,-1.7317670612
 C,0,1.7612188922,-0.498394082,-1.8264714349
 C,0,3.0339806862,-5.6528743705,-2.0389851289
 C,0,1.8828732608,-0.5531693011,-3.3828784527
 C,0,0.4645545771,5.168402132,-3.2768916253
 C,0,1.3033123675,1.278294755,0.666176843
 C,0,2.6241965709,-4.0604370433,0.7662093867
 C,0,0.0056409387,6.5727140998,0.9048438586
 C,0,2.16239572,-2.2386393995,3.2397925498
 C,0,0.683289157,2.9599682668,3.2336512256
 C,0,-0.1677171175,7.9925193531,1.5341883723
 C,0,1.0357176118,8.0851702854,-1.6450280314
 C,0,2.6013018757,2.5648095198,-1.8088805624
 C,0,2.6795172386,2.6178571808,-3.3594047335
 C,0,3.9772267157,-2.7967760067,-1.7990254303
 C,0,2.1878957025,4.309601426,0.7737034259
 C,0,3.5384240285,-1.0160672581,0.7351398314
 C,0,4.1240316346,-2.9962042044,-3.342848277
 C,0,4.9271060231,-6.2957547611,0.7983629684
 C,0,2.977598161,0.8026464086,3.2092132178
 C,0,4.5401414667,-4.7755623074,3.2524056074
 C,0,1.8609174827,6.1603839965,3.3937579188
 C,0,3.2930392349,5.5859378124,-1.9702587833
 C,0,2.9721401646,7.4214240753,1.0379755995
 C,0,4.8576461952,0.2497726052,-1.8033759737
 C,0,5.702180934,-3.3123256984,0.7467930839
 C,0,4.3862631609,2.0452039866,0.7291172296
 C,0,5.1048115363,0.2669599057,-3.3486193374
 C,0,6.3740704674,-4.8844620101,-1.9221344157
 C,0,5.6151371199,-1.6514842472,3.2511487878
 C,0,4.2296847496,4.1114396026,3.1796110391
 C,0,7.0301551334,-3.9102738825,1.3156023772
 C,0,5.5962552487,3.1302087505,-2.1060929975
 C,0,7.083538904,-1.9953835236,-1.748453642
 C,0,6.5786385399,-0.2132865719,0.7790990548
 C,0,5.2959160778,5.0254456883,0.6845129423
 C,0,7.3953918842,-2.0265642113,-3.2635818307
 C,0,6.2688610381,1.5215345558,3.3296551288
 C,0,8.445530505,-2.4006492723,-1.1370190664
 C,0,8.0196079018,-0.4217645332,1.33901522
 C,0,7.9908912078,0.8744872179,-1.7868381139
 C,0,7.5165604113,2.7457586971,1.0364016787
 H,0,-7.9895558204,-3.9465028892,-1.9358375365
 H,0,-8.573964124,-1.9913319095,1.3107085113
 H,0,-7.3658383388,-5.7768325548,-1.2948556284
 H,0,-7.8417200299,-3.9082073989,0.7590862655
 H,0,-8.0674106764,-2.3372667894,-1.2422181324
 H,0,-8.3156819208,-0.3199501135,1.7532139883
 H,0,-7.4160514953,-2.5723080241,-2.8637531983
 H,0,-8.2677458021,-0.7856446103,0.0603264916
 H,0,-7.1076308526,-3.9838556836,2.3534313634
 H,0,-6.2789275726,-7.0474312847,-1.8162991194
 H,0,-6.7439866678,-5.1983882511,1.1517668026
 H,0,-6.1869351083,-6.4470732121,-0.1736153702
 H,0,-6.5846612683,-5.1429882703,-3.4975327575
 H,0,-7.7661543355,1.6552568263,1.5219195508
 H,0,-7.1409909071,-0.9402670953,3.6379132459
 H,0,-7.3252336061,-0.3369842676,-1.5061171323
 H,0,-6.5170071836,-2.5719037165,3.667121747
 H,0,-5.4283226295,-6.3012023572,1.7064644576
 H,0,-6.6819238154,1.157445014,-2.1785225971
 H,0,-7.3953168799,1.4521085748,-0.1822569535
 H,0,-5.163314179,-6.1675322952,-3.6432167882
 H,0,-7.2077948454,3.0263149527,0.5978766156
 H,0,-4.5381712928,-7.5203472442,0.8041778642
 H,0,-6.4847836872,-0.36163432,-3.0375046424
 H,0,-5.5005526952,-2.2279905703,-3.7100745723
 H,0,-4.3359427065,-7.8667719533,-1.6286878737
 H,0,-6.200070853,0.8274103246,3.5702002795
 H,0,-5.1482822572,-4.5274361499,3.4484380783
 H,0,-5.031965089,-4.4195689323,-3.8557551301
 H,0,-5.4126464461,-1.217676745,3.8747463881
 H,0,-6.4852919882,3.005462704,-1.330443789
 H,0,-4.025641505,-7.0370871844,2.4049473395
 H,0,-6.808771149,4.6375975279,1.8890740709
 H,0,-4.3111239625,-3.0296200826,3.8292314637
 H,0,-6.482804388,4.960911908,0.1819424635
 H,0,-6.3259901917,2.5530358632,3.3155443311
 H,0,-3.1630003472,-7.3469032457,-2.8268328335
 H,0,-5.7239535011,3.0441716441,-2.9166651571
 H,0,-4.1643116051,-1.1107232137,-3.7844302008
 H,0,-3.8526721055,-2.8199032723,-3.7960001962
 H,0,-4.9260773233,1.0587176601,-3.600037299
 H,0,-5.6918323351,4.4695448583,-1.8942036675
 H,0,-2.6255465588,-7.9662430386,-1.2602377855
 H,0,-6.1526293383,6.1907423753,1.4033298991
 H,0,-5.3118727001,4.2676719614,3.8122477827
 H,0,-2.4492660496,-8.3807401813,1.0796682812
 H,0,-4.7977091221,1.8531944435,3.8523127759
 H,0,-3.4222638849,-4.5447406647,3.7489420298
 H,0,-2.7409951019,-6.5225040144,3.7507783102
 H,0,-5.620785919,6.3480400421,-1.1115039298
 H,0,-3.1802648937,-4.7371022984,-3.7102813598
 H,0,-3.2757535095,-1.3493467148,3.8076009102
 H,0,-3.6790774265,0.3357874987,3.4992383515
 H,0,-1.7312212092,-5.6633725407,-3.4480901228
 H,0,-4.9027576375,6.340781831,-2.73014175
 H,0,-3.3055983801,0.57801643,-4.0312880666
 H,0,-3.6646417297,2.2435159172,-3.7308563631
 H,0,-3.6449357347,3.7044166822,3.8510991194
 H,0,-3.9582092833,4.3292445994,-3.5661636784
 H,0,-0.851119532,-8.3293459444,1.7948911978
 H,0,-1.0556904882,-6.9667618403,3.6620073023
 H,0,-1.0426634294,-8.0678309248,0.0601105997
 H,0,-4.6802350181,7.7169001636,-1.6670577666
 H,0,-0.9655940539,-7.0773583167,-1.950222183
 H,0,-4.0004262499,5.4275527558,3.8446811782
 H,0,-2.0887642355,-0.5452851106,-3.7844507673
 H,0,-1.9297713055,-3.10370973,3.6603785445
 H,0,-1.4947078354,-5.2847623545,3.9257309939
 H,0,-4.2360287025,6.9254267423,2.4595576668
 H,0,-1.6125694124,-3.9813679148,-3.8696992972
 H,0,-4.3691556658,7.6405880123,0.8658017053
 H,0,-1.9782023787,-0.1899042157,3.4518820939
 H,0,-1.6858716394,-2.2242749784,-3.7997296145
 H,0,-2.3447991754,3.7301842418,-3.9274673926
 H,0,0.4747787043,-6.4678122692,-2.7377711356
 H,0,-2.6060545094,5.4150906955,-3.5782265479
 H,0,-1.652664376,1.9409665672,-3.7130759387
 H,0,-0.7074934608,-1.8193109672,3.5364998305
 H,0,0.5695750912,-7.0833234342,-1.0975698895
 H,0,-2.8365063958,7.800084752,-3.4274607381
 H,0,-3.1382702362,8.9387371616,-1.3052574408
 H,0,-0.2173382048,-3.494194238,3.7702303775
 H,0,-0.4199384317,-1.0203018446,-3.8289404084
 H,0,-2.9112978057,7.8396756109,1.8180206464
 H,0,-1.8192367526,4.6927413568,3.9105755012
 H,0,0.9594445757,-7.7627257017,1.0384635491
 H,0,0.934093755,-6.6106563531,3.4721274961
 H,0,0.167749134,-3.0875441019,-3.8480220165
 H,0,0.6094787526,-4.7588236996,-3.6229930255
 H,0,-2.0445596096,6.4103236365,3.5879844316
 H,0,-2.2497247525,8.5505408995,0.1609384729
 H,0,2.3333977908,-7.2635371442,0.0522180717
 H,0,0.795723352,-4.935337653,3.975815517
 H,0,-1.4029416816,6.8193163842,-3.7518772664
 H,0,-0.1649716404,1.0818517606,-3.9153771385
 H,0,-0.1535940562,2.8242359205,-3.8159512975
 H,0,-0.4867699499,4.9988262978,-3.7838129031
 H,0,-1.2282219618,8.4866979665,-3.2535688468
 H,0,-1.445695607,9.3477013699,-1.1791584142
 H,0,1.454011357,-1.4785776618,3.5796952754
 H,0,0.2153300486,1.991860525,3.464690575
 H,0,-1.1822413331,8.2106478377,1.8677362949
 H,0,-0.4291151221,5.7625721365,3.7857181763
 H,0,2.5041914097,-7.4285739877,1.7879076298
 H,0,2.6365864258,-5.6298443278,-3.0582277331
 H,0,2.3741558524,-5.6498748428,3.6806623746
 H,0,1.8464179924,-3.550418194,-3.7707768657
 H,0,1.6147371156,-1.5265312823,-3.7902067486
 H,0,2.6086437427,-6.5342532578,-1.5654518497
 H,0,1.2627141531,0.1779013612,-3.8984936641
 H,0,1.8578859075,-3.202254906,3.6462906052
 H,0,0.0469621957,3.7652211096,3.591370159
 H,0,0.7622789008,6.195222163,-3.5110753848
 H,0,1.2016690555,4.5457189938,-3.7797767816
 H,0,0.1102259465,8.78899181,0.835714674
 H,0,1.7339630719,2.8808378144,-3.8268483333
 H,0,1.9513730028,0.5812893878,3.5175640717
 H,0,4.1102644758,-5.8027778793,-2.1240929514
 H,0,0.4577502035,8.1370810513,2.4208665302
 H,0,2.8965474755,-0.3543330478,-3.7277303746
 H,0,0.4872981028,9.0251318953,-1.5181819119
 H,0,3.1442118249,-2.0047848154,3.6505326725
 H,0,1.6239160696,3.0068567887,3.780326436
 H,0,3.4284367105,-2.4088488438,-3.9408346917
 H,0,1.2110550541,6.95663959,3.7705104301
 H,0,4.5706915716,-6.6116740703,-0.1821866003
 H,0,3.9819048173,-4.0431379898,-3.6278337343
 H,0,3.8731195693,-4.1542728744,3.8513704934
 H,0,1.2426945994,8.0003977936,-2.7167169284
 H,0,4.5881548388,-7.0423511724,1.5222045836
 H,0,4.3399173071,-5.8226691374,3.5039308545
 H,0,2.9333681902,1.6543461216,-3.7898629918
 H,0,1.625991714,5.249411486,3.9436666468
 H,0,3.6363272172,0.0611730179,3.6568034045
 H,0,1.9867555196,8.2113517803,-1.1300802791
 H,0,3.4281749933,3.3324942653,-3.7208380807
 H,0,2.8165463819,6.5638819988,-2.0268654095
 H,0,3.2630849492,1.7783842691,3.6011600321
 H,0,5.1216696149,-2.7414570654,-3.702206719
 H,0,6.0329674679,-5.7948509384,-1.4300209426
 H,0,6.021779252,-6.3423311624,0.7901789219
 H,0,5.1271553641,-2.5033374992,3.7183712378
 H,0,2.4772188463,8.3900465809,1.1733738467
 H,0,4.8829285055,-0.6906448641,-3.8180230279
 H,0,5.5624887325,-4.5779171429,3.5881895501
 H,0,4.5288761004,1.0179970953,-3.886359258
 H,0,2.8770152235,6.4541761719,3.6682071848
 H,0,3.502933742,5.2847527265,-3.0016180931
 H,0,3.4315348098,3.8167380747,3.860636776
 H,0,6.0975218975,-4.9473584321,-2.9801761936
 H,0,3.3818625411,7.3924962046,0.0275565647
 H,0,5.3554507635,-0.7612189263,3.819935739
 H,0,4.2479625287,5.7156650102,-1.4627857101
 H,0,4.3984416249,5.1843494934,3.3136943061
 H,0,3.8143610705,7.4038563575,1.7377665236
 H,0,6.861330812,-4.6011541335,2.1480043007
 H,0,5.338024082,1.4287275133,3.8878607639
 H,0,6.6085048104,-1.6682257083,-3.9231187127
 H,0,5.2819287606,4.168943929,-2.1861862967
 H,0,6.1480422486,0.4900275437,-3.5958828896
 H,0,7.4690587487,-4.8984590354,-1.885829361
 H,0,5.7115714033,2.7566106204,-3.1288608758
 H,0,6.6958395697,-1.8006110643,3.3760617446
 H,0,5.1457926007,3.6180079552,3.5042772
 H,0,4.9059918687,6.0354925176,0.5649896177
 H,0,7.581283114,-4.4837126475,0.562367067
 H,0,7.6545324349,-3.0459909638,-3.5822560283
 H,0,5.7834941459,4.7380117134,-0.2453909804
 H,0,7.7193933728,-3.1624270984,1.7105720655
 H,0,6.5889214231,3.1092744745,-1.6557733571
 H,0,6.0751191348,5.0835365759,1.4513378567
 H,0,6.9233851196,0.708664185,3.6553808002
 H,0,6.7585788813,2.448106291,3.6483416021
 H,0,8.4522027459,-2.5009220698,-0.0575545834
 H,0,8.2789497439,-1.406371914,-3.4729943
 H,0,8.787180083,-3.3578249814,-1.5543814385
 H,0,8.2622893821,-1.4598299558,1.56389678
 H,0,8.1922201901,0.1221607854,2.2744286396
 H,0,7.7516354677,1.3483208935,-2.7426702109
 H,0,7.524159603,3.2120990246,0.0515067801
 H,0,8.2709083298,1.6665925512,-1.0913680675
 H,0,7.4974263631,3.5536083933,1.7742852238
 H,0,9.2238593895,-1.6707083569,-1.3986160653
 H,0,8.7855037074,-0.0707304876,0.6376244826
 H,0,8.8897235886,0.2709509655,-1.9555881125
 H,0,8.4729501609,2.2273363858,1.1722339255
 O,0,-0.0843290557,0.0840767157,2.9462220072
 Si,0,-5.7117562815,-3.3150596157,-1.1337127801
 Si,0,-6.1494559032,-1.5063350329,1.417418982
 Si,0,-3.5558078031,-5.5756897876,-1.0757032745
 Si,0,-4.8292022003,-0.2887841018,-1.1753387662
 Si,0,-3.9920405592,-3.787643595,1.4093134042
 Si,0,-5.3276343619,1.4950725225,1.3387011105
 Si,0,-2.6551339351,-2.5554084426,-1.1627040036
 Si,0,-3.9620706457,2.8190606503,-1.1655849974
 Si,0,-4.3408772306,4.5001854863,1.5254884285
 Si,0,-3.0963146649,-0.7390358531,1.3459685262
 Si,0,-1.7563194557,-6.0204201681,1.4730622536
 Si,0,-1.7831560707,0.5185703132,-1.2687765306
 Si,0,-0.4528979766,-4.7810972681,-1.0733216695
 Si,0,-3.0978446214,5.90707482,-1.0129955648
 Si,0,-2.1934156855,2.2523373915,0.9631183586
 Si,0,-0.8795235452,-2.9939320556,1.3944950073
 Si,0,-0.9145984754,3.6262419976,-1.2041264277
 Si,0,0.4315919032,-1.7626136265,-1.186509947
 Si,0,-1.3474322089,5.3457588878,1.4814305773
 Si,0,0.0140879822,0.0114100114,1.3697584501
 Si,0,1.3202998784,-5.3056355512,1.4384998319
 Si,0,-0.0570116406,6.6592727742,-0.9912067177
 Si,0,1.2999905773,1.2841231049,-1.2182317462
 Si,0,2.6169867169,-4.0170379692,-1.1491862763
 Si,0,0.8816309054,3.0046207279,1.3623648164
 Si,0,2.1855050042,-2.2622675371,1.3521664688
 Si,0,2.1362795408,4.3237605803,-1.1368948926
 Si,0,3.5338271409,-1.0173950303,-1.1828579038
 Si,0,4.3744250651,-4.5552201521,1.3565723725
 Si,0,3.0552093836,0.7657653905,1.3242166677
 Si,0,1.7523386659,6.0249372558,1.488383049
 Si,0,4.3605648265,2.0075056027,-1.1876618899
 Si,0,5.7366604136,-3.2574218114,-1.1538326091
 Si,0,5.3026007464,-1.5308392794,1.3802226568
 Si,0,3.9673947654,3.8138708819,1.3216563084
 Si,0,6.5913067229,-0.2456501127,-1.1175506604
 Si,0,6.0978791784,1.5238598348,1.4183589505
 Recover connectivity data from disk.
 ITRead=  0  0  0  0  0  0  0  0  0  0  0  0  0  0  0  0  0  0  0  0
 ITRead=  0  0  0  0  0  0  0  0  0  0  0  0  0  0  0  0  0  0  0  0
 ITRead=  0  0  0  0  0  0  0  0  0  0  0  0  0  0  0  0  0  0  0  0
 ITRead=  0  0  0  0  0  0  0  0  0  0  0  0  0  0  0  0  0  0  0  0
 ITRead=  0  0  0  0  0  0  0  0  0  0  0  0  0  0  0  0  0  0  0  0
 ITRead=  0  0  0  0  0  0  0  0  0  0  0  0  0  0  0  0  0  0  0  0
 ITRead=  0  0  0  0  0  0  0  0  0  0  0  0  0  0  0  0  0  0  0  0
 ITRead=  0  0  0  0  0  0  0  0  0  0  0  0  0  0  0  0  0  0  0  0
 ITRead=  0  0  0  0  0  0  0  0  0  0  0  0  0  0  0  0  0  0  0  0
 ITRead=  0  0  0  0  0  0  0  0  0  0  0  0  0  0  0  0  0  0  0  0
 ITRead=  0  0  0  0  0  0  0  0  0  0  0  0  0  0  0  0  0  0  0  0
 ITRead=  0  0  0  0  0  0  0  0  0  0  0  0  0  0  0  0  0  0  0  0
 ITRead=  0  0  0  0  0  0  0  0  0  0  0  0  0  0  0  0  0  0  0  0
 ITRead=  0  0  0  0  0  0  0  0  0  0  0  0  0  0  0  0  0  0  0  0
 ITRead=  0  0  0  0  0  0  0  0  0  0  0  0  0  0  0  0  0  0  0  0
 ITRead=  0  0  0  0  0  0  0  0  0  0  0  0  0  0  0  0  0  0  0
 MicOpt= -1 -1 -1 -1 -1 -1 -1 -1 -1 -1 -1 -1 -1 -1 -1 -1 -1 -1 -1 -1
 MicOpt= -1 -1 -1 -1 -1 -1 -1 -1 -1 -1 -1 -1 -1 -1 -1 -1 -1 -1 -1 -1
 MicOpt= -1 -1 -1 -1 -1 -1 -1 -1 -1 -1 -1 -1 -1 -1 -1 -1 -1 -1 -1 -1
 MicOpt= -1 -1 -1 -1 -1 -1 -1 -1 -1 -1 -1 -1 -1 -1 -1 -1 -1 -1 -1 -1
 MicOpt= -1 -1 -1 -1 -1 -1 -1 -1 -1 -1 -1 -1 -1 -1 -1 -1 -1 -1 -1 -1
 MicOpt= -1 -1 -1 -1 -1 -1 -1 -1 -1 -1 -1 -1 -1 -1 -1 -1 -1 -1 -1 -1
 MicOpt= -1 -1 -1 -1 -1 -1 -1 -1 -1 -1 -1 -1 -1 -1 -1 -1 -1 -1 -1 -1
 MicOpt= -1 -1 -1 -1 -1 -1 -1 -1 -1 -1 -1 -1 -1 -1 -1 -1 -1 -1 -1 -1
 MicOpt= -1 -1 -1 -1 -1 -1 -1 -1 -1 -1 -1 -1 -1 -1 -1 -1 -1 -1 -1 -1
 MicOpt= -1 -1 -1 -1 -1 -1 -1 -1 -1 -1 -1 -1 -1 -1 -1 -1 -1 -1 -1 -1
 MicOpt= -1 -1 -1 -1 -1 -1 -1 -1 -1 -1 -1 -1 -1 -1 -1 -1 -1 -1 -1 -1
 MicOpt= -1 -1 -1 -1 -1 -1 -1 -1 -1 -1 -1 -1 -1 -1 -1 -1 -1 -1 -1 -1
 MicOpt= -1 -1 -1 -1 -1 -1 -1 -1 -1 -1 -1 -1 -1 -1 -1 -1 -1 -1 -1 -1
 MicOpt= -1 -1 -1 -1 -1 -1 -1 -1 -1 -1 -1 -1 -1 -1 -1 -1 -1 -1 -1 -1
 MicOpt= -1 -1 -1 -1 -1 -1 -1 -1 -1 -1 -1 -1 -1 -1 -1 -1 -1 -1 -1 -1
 MicOpt= -1 -1 -1 -1 -1 -1 -1 -1 -1 -1 -1 -1 -1 -1 -1 -1 -1 -1 -1
                           ----------------------------
                           !    Current Parameters    !
                           ! (Angstroms and Degrees)  !
 --------------------------                            --------------------------
 ! Name  Definition              Value                                          !
 --------------------------------------------------------------------------------
 ! R1    R(1,96)                 1.0956                                         !
 ! R2    R(1,100)                1.0907                                         !
 ! R3    R(1,102)                1.0943                                         !
 ! R4    R(1,283)                1.9099                                         !
 ! R5    R(2,97)                 1.0961                                         !
 ! R6    R(2,101)                1.0935                                         !
 ! R7    R(2,103)                1.0897                                         !
 ! R8    R(2,284)                1.9115                                         !
 ! R9    R(3,7)                  1.5497                                         !
 ! R10   R(3,98)                 1.098                                          !
 ! R11   R(3,105)                1.0982                                         !
 ! R12   R(3,107)                1.0869                                         !
 ! R13   R(4,10)                 1.5554                                         !
 ! R14   R(4,99)                 1.0965                                         !
 ! R15   R(4,104)                1.0963                                         !
 ! R16   R(4,106)                1.0866                                         !
 ! R17   R(5,7)                  1.5483                                         !
 ! R18   R(5,108)                1.0995                                         !
 ! R19   R(5,116)                1.0989                                         !
 ! R20   R(5,124)                1.0881                                         !
 ! R21   R(6,110)                1.0955                                         !
 ! R22   R(6,112)                1.0933                                         !
 ! R23   R(6,125)                1.09                                           !
 ! R24   R(6,284)                1.9152                                         !
 ! R25   R(7,283)                1.9207                                         !
 ! R26   R(7,285)                1.9353                                         !
 ! R27   R(8,109)                1.0948                                         !
 ! R28   R(8,115)                1.0887                                         !
 ! R29   R(8,117)                1.0888                                         !
 ! R30   R(8,288)                1.9051                                         !
 ! R31   R(9,111)                1.0887                                         !
 ! R32   R(9,114)                1.0894                                         !
 ! R33   R(9,119)                1.0943                                         !
 ! R34   R(9,286)                1.9062                                         !
 ! R35   R(10,283)               1.8989                                         !
 ! R36   R(10,284)               1.907                                          !
 ! R37   R(10,287)               1.9368                                         !
 ! R38   R(11,18)                1.5608                                         !
 ! R39   R(11,113)               1.0906                                         !
 ! R40   R(11,118)               1.0959                                         !
 ! R41   R(11,127)               1.0948                                         !
 ! R42   R(12,121)               1.0956                                         !
 ! R43   R(12,132)               1.0954                                         !
 ! R44   R(12,138)               1.0895                                         !
 ! R45   R(12,285)               1.908                                          !
 ! R46   R(13,123)               1.0973                                         !
 ! R47   R(13,129)               1.088                                          !
 ! R48   R(13,143)               1.0871                                         !
 ! R49   R(13,287)               1.8987                                         !
 ! R50   R(14,16)                1.5584                                         !
 ! R51   R(14,120)               1.0961                                         !
 ! R52   R(14,134)               1.088                                          !
 ! R53   R(14,135)               1.0908                                         !
 ! R54   R(15,122)               1.0903                                         !
 ! R55   R(15,131)               1.0951                                         !
 ! R56   R(15,142)               1.0898                                         !
 ! R57   R(15,288)               1.8989                                         !
 ! R58   R(16,283)               1.9277                                         !
 ! R59   R(16,286)               1.9193                                         !
 ! R60   R(16,289)               1.9229                                         !
 ! R61   R(17,284)               1.921                                          !
 ! R62   R(17,286)               1.915                                          !
 ! R63   R(17,288)               1.8971                                         !
 ! R64   R(17,292)               1.9378                                         !
 ! R65   R(18,285)               1.9073                                         !
 ! R66   R(18,287)               1.9201                                         !
 ! R67   R(18,293)               1.9254                                         !
 ! R68   R(19,126)               1.087                                          !
 ! R69   R(19,133)               1.0937                                         !
 ! R70   R(19,137)               1.0888                                         !
 ! R71   R(19,290)               1.8982                                         !
 ! R72   R(20,128)               1.0948                                         !
 ! R73   R(20,130)               1.0912                                         !
 ! R74   R(20,139)               1.0955                                         !
 ! R75   R(20,291)               1.9018                                         !
 ! R76   R(21,26)                1.5693                                         !
 ! R77   R(21,136)               1.0935                                         !
 ! R78   R(21,151)               1.0889                                         !
 ! R79   R(21,152)               1.0899                                         !
 ! R80   R(22,25)                1.5614                                         !
 ! R81   R(22,146)               1.0899                                         !
 ! R82   R(22,149)               1.0959                                         !
 ! R83   R(22,165)               1.0876                                         !
 ! R84   R(23,140)               1.0922                                         !
 ! R85   R(23,153)               1.0932                                         !
 ! R86   R(23,160)               1.092                                          !
 ! R87   R(23,291)               1.9055                                         !
 ! R88   R(24,141)               1.0957                                         !
 ! R89   R(24,155)               1.0951                                         !
 ! R90   R(24,157)               1.0901                                         !
 ! R91   R(24,293)               1.9119                                         !
 ! R92   R(25,285)               1.9292                                         !
 ! R93   R(25,289)               1.9446                                         !
 ! R94   R(25,295)               1.9301                                         !
 ! R95   R(26,286)               1.954                                          !
 ! R96   R(26,290)               1.9334                                         !
 ! R97   R(26,294)               1.9533                                         !
 ! R98   R(27,147)               1.0899                                         !
 ! R99   R(27,148)               1.0908                                         !
 ! R100  R(27,167)               1.0985                                         !
 ! R101  R(27,292)               1.8852                                         !
 ! R102  R(28,287)               1.9452                                         !
 ! R103  R(28,289)               1.9239                                         !
 ! R104  R(28,292)               1.9278                                         !
 ! R105  R(28,298)               1.9501                                         !
 ! R106  R(29,288)               1.9399                                         !
 ! R107  R(29,290)               1.9531                                         !
 ! R108  R(29,291)               1.9162                                         !
 ! R109  R(29,297)               1.8629                                         !
 ! R110  R(30,144)               1.0944                                         !
 ! R111  R(30,156)               1.0934                                         !
 ! R112  R(30,163)               1.0897                                         !
 ! R113  R(30,293)               1.9132                                         !
 ! R114  R(31,145)               1.0915                                         !
 ! R115  R(31,150)               1.095                                          !
 ! R116  R(31,158)               1.0951                                         !
 ! R117  R(31,296)               1.9088                                         !
 ! R118  R(32,37)                1.5646                                         !
 ! R119  R(32,154)               1.0956                                         !
 ! R120  R(32,169)               1.0901                                         !
 ! R121  R(32,171)               1.0896                                         !
 ! R122  R(33,38)                1.5624                                         !
 ! R123  R(33,164)               1.0967                                         !
 ! R124  R(33,166)               1.0956                                         !
 ! R125  R(33,179)               1.0895                                         !
 ! R126  R(34,36)                1.5616                                         !
 ! R127  R(34,161)               1.0871                                         !
 ! R128  R(34,168)               1.0881                                         !
 ! R129  R(34,178)               1.0886                                         !
 ! R130  R(35,159)               1.0904                                         !
 ! R131  R(35,170)               1.0923                                         !
 ! R132  R(35,174)               1.0892                                         !
 ! R133  R(35,295)               1.908                                          !
 ! R134  R(36,289)               1.9517                                         !
 ! R135  R(36,294)               1.9226                                         !
 ! R136  R(36,300)               1.948                                          !
 ! R137  R(37,290)               1.9328                                         !
 ! R138  R(37,296)               1.9401                                         !
 ! R139  R(37,299)               1.9401                                         !
 ! R140  R(38,291)               1.9032                                         !
 ! R141  R(38,296)               1.9034                                         !
 ! R142  R(38,301)               1.924                                          !
 ! R143  R(39,292)               1.9405                                         !
 ! R144  R(39,294)               1.9175                                         !
 ! R145  R(39,297)               1.8178                                         !
 ! R146  R(39,302)               2.0006                                         !
 ! R147  R(40,162)               1.0894                                         !
 ! R148  R(40,173)               1.0943                                         !
 ! R149  R(40,177)               1.0864                                         !
 ! R150  R(40,298)               1.8852                                         !
 ! R151  R(41,293)               1.9124                                         !
 ! R152  R(41,295)               1.904                                          !
 ! R153  R(41,298)               1.9417                                         !
 ! R154  R(41,303)               1.9246                                         !
 ! R155  R(42,43)                1.5596                                         !
 ! R156  R(42,172)               1.0886                                         !
 ! R157  R(42,190)               1.0875                                         !
 ! R158  R(42,191)               1.0909                                         !
 ! R159  R(43,294)               1.9371                                         !
 ! R160  R(43,299)               1.9498                                         !
 ! R161  R(43,305)               1.9703                                         !
 ! R162  R(44,45)                1.5474                                         !
 ! R163  R(44,176)               1.0982                                         !
 ! R164  R(44,186)               1.0846                                         !
 ! R165  R(44,194)               1.0975                                         !
 ! R166  R(45,47)                1.5477                                         !
 ! R167  R(45,296)               1.9305                                         !
 ! R168  R(45,304)               1.9253                                         !
 ! R169  R(46,48)                1.561                                          !
 ! R170  R(46,295)               1.9335                                         !
 ! R171  R(46,300)               1.9246                                         !
 ! R172  R(46,306)               1.9302                                         !
 ! R173  R(47,175)               1.0994                                         !
 ! R174  R(47,189)               1.0886                                         !
 ! R175  R(47,193)               1.0987                                         !
 ! R176  R(48,183)               1.0886                                         !
 ! R177  R(48,184)               1.0939                                         !
 ! R178  R(48,202)               1.0893                                         !
 ! R179  R(49,180)               1.0898                                         !
 ! R180  R(49,185)               1.0967                                         !
 ! R181  R(49,198)               1.0872                                         !
 ! R182  R(49,301)               1.898                                          !
 ! R183  R(50,297)               1.853                                          !
 ! R184  R(50,299)               1.9716                                         !
 ! R185  R(50,301)               1.9551                                         !
 ! R186  R(50,307)               1.9769                                         !
 ! R187  R(51,298)               1.9303                                         !
 ! R188  R(51,300)               1.8873                                         !
 ! R189  R(51,302)               1.9388                                         !
 ! R190  R(51,308)               1.9365                                         !
 ! R191  R(52,181)               1.0909                                         !
 ! R192  R(52,187)               1.0877                                         !
 ! R193  R(52,199)               1.0956                                         !
 ! R194  R(52,303)               1.9111                                         !
 ! R195  R(53,182)               1.0947                                         !
 ! R196  R(53,188)               1.0878                                         !
 ! R197  R(53,201)               1.0889                                         !
 ! R198  R(53,303)               1.9079                                         !
 ! R199  R(54,58)                1.5654                                         !
 ! R200  R(54,299)               1.9187                                         !
 ! R201  R(54,304)               1.9364                                         !
 ! R202  R(54,309)               1.9385                                         !
 ! R203  R(55,57)                1.5621                                         !
 ! R204  R(55,300)               1.9431                                         !
 ! R205  R(55,305)               1.9391                                         !
 ! R206  R(55,310)               1.9559                                         !
 ! R207  R(56,200)               1.0942                                         !
 ! R208  R(56,204)               1.0872                                         !
 ! R209  R(56,213)               1.09                                           !
 ! R210  R(56,306)               1.9083                                         !
 ! R211  R(57,203)               1.0887                                         !
 ! R212  R(57,205)               1.0885                                         !
 ! R213  R(57,215)               1.089                                          !
 ! R214  R(58,192)               1.0912                                         !
 ! R215  R(58,208)               1.0945                                         !
 ! R216  R(58,209)               1.0881                                         !
 ! R217  R(59,302)               1.9396                                         !
 ! R218  R(59,305)               1.8844                                         !
 ! R219  R(59,307)               1.9086                                         !
 ! R220  R(59,312)               1.9403                                         !
 ! R221  R(60,303)               1.9242                                         !
 ! R222  R(60,306)               1.9159                                         !
 ! R223  R(60,308)               1.9414                                         !
 ! R224  R(60,311)               1.9122                                         !
 ! R225  R(61,64)                1.5627                                         !
 ! R226  R(61,301)               1.9154                                         !
 ! R227  R(61,304)               1.8991                                         !
 ! R228  R(61,313)               1.9213                                         !
 ! R229  R(62,195)               1.0932                                         !
 ! R230  R(62,206)               1.0893                                         !
 ! R231  R(62,217)               1.0897                                         !
 ! R232  R(62,308)               1.8879                                         !
 ! R233  R(63,196)               1.0998                                         !
 ! R234  R(63,207)               1.0869                                         !
 ! R235  R(63,218)               1.089                                          !
 ! R236  R(63,307)               1.8823                                         !
 ! R237  R(64,197)               1.09                                           !
 ! R238  R(64,210)               1.0952                                         !
 ! R239  R(64,214)               1.0947                                         !
 ! R240  R(65,216)               1.0956                                         !
 ! R241  R(65,224)               1.0948                                         !
 ! R242  R(65,230)               1.0888                                         !
 ! R243  R(65,304)               1.9117                                         !
 ! R244  R(66,67)                1.5534                                         !
 ! R245  R(66,305)               1.919                                          !
 ! R246  R(66,309)               1.9395                                         !
 ! R247  R(66,314)               1.9472                                         !
 ! R248  R(67,211)               1.0871                                         !
 ! R249  R(67,227)               1.0854                                         !
 ! R250  R(67,231)               1.0963                                         !
 ! R251  R(68,71)                1.5636                                         !
 ! R252  R(68,306)               1.9395                                         !
 ! R253  R(68,310)               1.9345                                         !
 ! R254  R(68,315)               1.9298                                         !
 ! R255  R(69,307)               1.938                                          !
 ! R256  R(69,309)               1.9113                                         !
 ! R257  R(69,313)               1.9086                                         !
 ! R258  R(69,317)               1.9268                                         !
 ! R259  R(70,308)               1.9401                                         !
 ! R260  R(70,310)               1.918                                          !
 ! R261  R(70,312)               1.9379                                         !
 ! R262  R(70,316)               1.9477                                         !
 ! R263  R(71,219)               1.0892                                         !
 ! R264  R(71,222)               1.0943                                         !
 ! R265  R(71,234)               1.0906                                         !
 ! R266  R(72,221)               1.0901                                         !
 ! R267  R(72,225)               1.0937                                         !
 ! R268  R(72,236)               1.0957                                         !
 ! R269  R(72,311)               1.9096                                         !
 ! R270  R(73,212)               1.0942                                         !
 ! R271  R(73,229)               1.0881                                         !
 ! R272  R(73,233)               1.0896                                         !
 ! R273  R(73,312)               1.887                                          !
 ! R274  R(74,223)               1.0907                                         !
 ! R275  R(74,226)               1.0953                                         !
 ! R276  R(74,240)               1.0941                                         !
 ! R277  R(74,311)               1.9158                                         !
 ! R278  R(75,220)               1.0947                                         !
 ! R279  R(75,228)               1.0897                                         !
 ! R280  R(75,242)               1.0927                                         !
 ! R281  R(75,313)               1.9133                                         !
 ! R282  R(76,232)               1.0893                                         !
 ! R283  R(76,243)               1.0947                                         !
 ! R284  R(76,248)               1.0891                                         !
 ! R285  R(76,309)               1.9041                                         !
 ! R286  R(77,238)               1.0961                                         !
 ! R287  R(77,246)               1.0907                                         !
 ! R288  R(77,250)               1.0951                                         !
 ! R289  R(77,313)               1.9081                                         !
 ! R290  R(78,81)                1.565                                          !
 ! R291  R(78,310)               1.9347                                         !
 ! R292  R(78,314)               1.9276                                         !
 ! R293  R(78,318)               1.9291                                         !
 ! R294  R(79,85)                1.5635                                         !
 ! R295  R(79,311)               1.9182                                         !
 ! R296  R(79,315)               1.9017                                         !
 ! R297  R(79,316)               1.9325                                         !
 ! R298  R(80,312)               1.9398                                         !
 ! R299  R(80,314)               1.9173                                         !
 ! R300  R(80,317)               1.9117                                         !
 ! R301  R(80,319)               1.9174                                         !
 ! R302  R(81,239)               1.0893                                         !
 ! R303  R(81,241)               1.0885                                         !
 ! R304  R(81,255)               1.0951                                         !
 ! R305  R(82,235)               1.0896                                         !
 ! R306  R(82,245)               1.0954                                         !
 ! R307  R(82,256)               1.0957                                         !
 ! R308  R(82,315)               1.9089                                         !
 ! R309  R(83,237)               1.0872                                         !
 ! R310  R(83,247)               1.0879                                         !
 ! R311  R(83,258)               1.0981                                         !
 ! R312  R(83,316)               1.9007                                         !
 ! R313  R(84,244)               1.0898                                         !
 ! R314  R(84,249)               1.0943                                         !
 ! R315  R(84,259)               1.09                                           !
 ! R316  R(84,317)               1.8998                                         !
 ! R317  R(85,251)               1.0949                                         !
 ! R318  R(85,261)               1.0954                                         !
 ! R319  R(85,264)               1.091                                          !
 ! R320  R(86,254)               1.0882                                         !
 ! R321  R(86,257)               1.095                                          !
 ! R322  R(86,265)               1.0902                                         !
 ! R323  R(86,314)               1.9055                                         !
 ! R324  R(87,90)                1.5472                                         !
 ! R325  R(87,92)                1.547                                          !
 ! R326  R(87,315)               1.9392                                         !
 ! R327  R(87,318)               1.924                                          !
 ! R328  R(88,93)                1.5599                                         !
 ! R329  R(88,316)               1.9302                                         !
 ! R330  R(88,318)               1.897                                          !
 ! R331  R(88,319)               1.9124                                         !
 ! R332  R(89,260)               1.0893                                         !
 ! R333  R(89,263)               1.0886                                         !
 ! R334  R(89,266)               1.0948                                         !
 ! R335  R(89,317)               1.9076                                         !
 ! R336  R(90,253)               1.0875                                         !
 ! R337  R(90,262)               1.0991                                         !
 ! R338  R(90,270)               1.0996                                         !
 ! R339  R(91,252)               1.0893                                         !
 ! R340  R(91,267)               1.0933                                         !
 ! R341  R(91,268)               1.0954                                         !
 ! R342  R(91,319)               1.9189                                         !
 ! R343  R(92,269)               1.0841                                         !
 ! R344  R(92,271)               1.0987                                         !
 ! R345  R(92,278)               1.0987                                         !
 ! R346  R(93,272)               1.0895                                         !
 ! R347  R(93,273)               1.0957                                         !
 ! R348  R(93,279)               1.0963                                         !
 ! R349  R(94,274)               1.0933                                         !
 ! R350  R(94,276)               1.0907                                         !
 ! R351  R(94,280)               1.0957                                         !
 ! R352  R(94,318)               1.9135                                         !
 ! R353  R(95,275)               1.0897                                         !
 ! R354  R(95,277)               1.0943                                         !
 ! R355  R(95,281)               1.0963                                         !
 ! R356  R(95,319)               1.9109                                         !
 ! R357  R(282,302)              1.5812                                         !
 ! R358  R(290,297)              2.825                                          !
 ! A1    A(96,1,100)           106.7044                                         !
 ! A2    A(96,1,102)           106.4876                                         !
 ! A3    A(96,1,283)           109.2893                                         !
 ! A4    A(100,1,102)          107.6039                                         !
 ! A5    A(100,1,283)          113.7786                                         !
 ! A6    A(102,1,283)          112.5684                                         !
 ! A7    A(97,2,101)           105.9531                                         !
 ! A8    A(97,2,103)           107.5957                                         !
 ! A9    A(97,2,284)           107.6366                                         !
 ! A10   A(101,2,103)          107.1276                                         !
 ! A11   A(101,2,284)          109.0302                                         !
 ! A12   A(103,2,284)          118.8006                                         !
 ! A13   A(7,3,98)             111.8275                                         !
 ! A14   A(7,3,105)            109.6124                                         !
 ! A15   A(7,3,107)            115.2413                                         !
 ! A16   A(98,3,105)           105.7821                                         !
 ! A17   A(98,3,107)           107.286                                          !
 ! A18   A(105,3,107)          106.5461                                         !
 ! A19   A(10,4,99)            111.3364                                         !
 ! A20   A(10,4,104)           112.8167                                         !
 ! A21   A(10,4,106)           113.7415                                         !
 ! A22   A(99,4,104)           106.4921                                         !
 ! A23   A(99,4,106)           105.596                                          !
 ! A24   A(104,4,106)          106.302                                          !
 ! A25   A(7,5,108)            109.4276                                         !
 ! A26   A(7,5,116)            110.978                                          !
 ! A27   A(7,5,124)            115.7742                                         !
 ! A28   A(108,5,116)          106.2112                                         !
 ! A29   A(108,5,124)          106.2536                                         !
 ! A30   A(116,5,124)          107.6814                                         !
 ! A31   A(110,6,112)          105.9195                                         !
 ! A32   A(110,6,125)          107.8506                                         !
 ! A33   A(110,6,284)          108.9987                                         !
 ! A34   A(112,6,125)          107.4114                                         !
 ! A35   A(112,6,284)          110.5241                                         !
 ! A36   A(125,6,284)          115.6681                                         !
 ! A37   A(3,7,5)              102.0051                                         !
 ! A38   A(3,7,283)            112.3173                                         !
 ! A39   A(3,7,285)            108.4017                                         !
 ! A40   A(5,7,283)            109.9817                                         !
 ! A41   A(5,7,285)            115.8705                                         !
 ! A42   A(283,7,285)          108.2426                                         !
 ! A43   A(109,8,115)          107.0584                                         !
 ! A44   A(109,8,117)          106.1039                                         !
 ! A45   A(109,8,288)          106.3959                                         !
 ! A46   A(115,8,117)          108.4717                                         !
 ! A47   A(115,8,288)          115.3455                                         !
 ! A48   A(117,8,288)          112.8852                                         !
 ! A49   A(111,9,114)          107.8568                                         !
 ! A50   A(111,9,119)          106.3147                                         !
 ! A51   A(111,9,286)          111.5311                                         !
 ! A52   A(114,9,119)          107.0713                                         !
 ! A53   A(114,9,286)          114.3174                                         !
 ! A54   A(119,9,286)          109.3567                                         !
 ! A55   A(4,10,283)           109.0264                                         !
 ! A56   A(4,10,284)           103.9568                                         !
 ! A57   A(4,10,287)           114.082                                          !
 ! A58   A(283,10,284)         112.1325                                         !
 ! A59   A(283,10,287)         108.1434                                         !
 ! A60   A(284,10,287)         109.542                                          !
 ! A61   A(18,11,113)          113.8536                                         !
 ! A62   A(18,11,118)          112.0761                                         !
 ! A63   A(18,11,127)          112.4936                                         !
 ! A64   A(113,11,118)         107.0871                                         !
 ! A65   A(113,11,127)         104.7713                                         !
 ! A66   A(118,11,127)         105.9456                                         !
 ! A67   A(121,12,132)         106.491                                          !
 ! A68   A(121,12,138)         106.6428                                         !
 ! A69   A(121,12,285)         108.4449                                         !
 ! A70   A(132,12,138)         108.0559                                         !
 ! A71   A(132,12,285)         111.2911                                         !
 ! A72   A(138,12,285)         115.4554                                         !
 ! A73   A(123,13,129)         107.0834                                         !
 ! A74   A(123,13,143)         106.6576                                         !
 ! A75   A(123,13,287)         107.2122                                         !
 ! A76   A(129,13,143)         107.8922                                         !
 ! A77   A(129,13,287)         114.9649                                         !
 ! A78   A(143,13,287)         112.5797                                         !
 ! A79   A(16,14,120)          112.3492                                         !
 ! A80   A(16,14,134)          113.1373                                         !
 ! A81   A(16,14,135)          112.5459                                         !
 ! A82   A(120,14,134)         105.918                                          !
 ! A83   A(120,14,135)         106.5719                                         !
 ! A84   A(134,14,135)         105.7623                                         !
 ! A85   A(122,15,131)         106.3069                                         !
 ! A86   A(122,15,142)         107.6911                                         !
 ! A87   A(122,15,288)         109.6446                                         !
 ! A88   A(131,15,142)         107.7225                                         !
 ! A89   A(131,15,288)         107.0401                                         !
 ! A90   A(142,15,288)         117.8561                                         !
 ! A91   A(14,16,283)          107.8432                                         !
 ! A92   A(14,16,286)          107.716                                          !
 ! A93   A(14,16,289)          111.748                                          !
 ! A94   A(283,16,286)         110.0696                                         !
 ! A95   A(283,16,289)         109.7661                                         !
 ! A96   A(286,16,289)         109.6575                                         !
 ! A97   A(284,17,286)         110.6139                                         !
 ! A98   A(284,17,288)         109.2307                                         !
 ! A99   A(284,17,292)         109.3795                                         !
 ! A100  A(286,17,288)         109.9938                                         !
 ! A101  A(286,17,292)         106.7606                                         !
 ! A102  A(288,17,292)         110.842                                          !
 ! A103  A(11,18,285)          112.4591                                         !
 ! A104  A(11,18,287)          112.2038                                         !
 ! A105  A(11,18,293)          103.2187                                         !
 ! A106  A(285,18,287)         107.7956                                         !
 ! A107  A(285,18,293)         110.6256                                         !
 ! A108  A(287,18,293)         110.5364                                         !
 ! A109  A(126,19,133)         107.6104                                         !
 ! A110  A(126,19,137)         107.8059                                         !
 ! A111  A(126,19,290)         113.4776                                         !
 ! A112  A(133,19,137)         107.0                                            !
 ! A113  A(133,19,290)         110.0264                                         !
 ! A114  A(137,19,290)         110.6624                                         !
 ! A115  A(128,20,130)         107.936                                          !
 ! A116  A(128,20,139)         106.4738                                         !
 ! A117  A(128,20,291)         110.0305                                         !
 ! A118  A(130,20,139)         107.5903                                         !
 ! A119  A(130,20,291)         115.6663                                         !
 ! A120  A(139,20,291)         108.7391                                         !
 ! A121  A(26,21,136)          111.5456                                         !
 ! A122  A(26,21,151)          114.8281                                         !
 ! A123  A(26,21,152)          113.1561                                         !
 ! A124  A(136,21,151)         106.1325                                         !
 ! A125  A(136,21,152)         105.2915                                         !
 ! A126  A(151,21,152)         105.1299                                         !
 ! A127  A(25,22,146)          113.015                                          !
 ! A128  A(25,22,149)          110.7352                                         !
 ! A129  A(25,22,165)          114.6685                                         !
 ! A130  A(146,22,149)         105.4839                                         !
 ! A131  A(146,22,165)         106.7583                                         !
 ! A132  A(149,22,165)         105.5016                                         !
 ! A133  A(140,23,153)         107.2855                                         !
 ! A134  A(140,23,160)         106.5884                                         !
 ! A135  A(140,23,291)         109.6873                                         !
 ! A136  A(153,23,160)         107.2532                                         !
 ! A137  A(153,23,291)         114.0807                                         !
 ! A138  A(160,23,291)         111.5863                                         !
 ! A139  A(141,24,155)         106.1728                                         !
 ! A140  A(141,24,157)         107.7175                                         !
 ! A141  A(141,24,293)         108.8005                                         !
 ! A142  A(155,24,157)         107.7287                                         !
 ! A143  A(155,24,293)         109.5287                                         !
 ! A144  A(157,24,293)         116.412                                          !
 ! A145  A(22,25,285)          102.648                                          !
 ! A146  A(22,25,289)          119.1403                                         !
 ! A147  A(22,25,295)          106.0289                                         !
 ! A148  A(285,25,289)         108.9605                                         !
 ! A149  A(285,25,295)         112.186                                          !
 ! A150  A(289,25,295)         107.8808                                         !
 ! A151  A(21,26,286)          106.9402                                         !
 ! A152  A(21,26,290)          101.2791                                         !
 ! A153  A(21,26,294)          119.5207                                         !
 ! A154  A(286,26,290)         112.1996                                         !
 ! A155  A(286,26,294)         107.5786                                         !
 ! A156  A(290,26,294)         109.306                                          !
 ! A157  A(147,27,148)         107.6204                                         !
 ! A158  A(147,27,167)         108.5078                                         !
 ! A159  A(147,27,292)         114.785                                          !
 ! A160  A(148,27,167)         108.8685                                         !
 ! A161  A(148,27,292)         109.7178                                         !
 ! A162  A(167,27,292)         107.219                                          !
 ! A163  A(287,28,289)         108.9925                                         !
 ! A164  A(287,28,292)         110.2886                                         !
 ! A165  A(287,28,298)         111.1041                                         !
 ! A166  A(289,28,292)         108.6294                                         !
 ! A167  A(289,28,298)         108.4936                                         !
 ! A168  A(292,28,298)         109.2768                                         !
 ! A169  A(288,29,290)         107.7613                                         !
 ! A170  A(288,29,291)         110.5038                                         !
 ! A171  A(288,29,297)         117.2034                                         !
 ! A172  A(290,29,291)         111.3503                                         !
 ! A173  A(291,29,297)         113.4234                                         !
 ! A174  A(144,30,156)         105.8184                                         !
 ! A175  A(144,30,163)         107.8393                                         !
 ! A176  A(144,30,293)         111.7459                                         !
 ! A177  A(156,30,163)         107.2954                                         !
 ! A178  A(156,30,293)         108.4191                                         !
 ! A179  A(163,30,293)         115.2275                                         !
 ! A180  A(145,31,150)         108.1705                                         !
 ! A181  A(145,31,158)         106.4359                                         !
 ! A182  A(145,31,296)         114.5997                                         !
 ! A183  A(150,31,158)         106.3487                                         !
 ! A184  A(150,31,296)         111.7932                                         !
 ! A185  A(158,31,296)         109.0457                                         !
 ! A186  A(37,32,154)          111.5603                                         !
 ! A187  A(37,32,169)          114.3104                                         !
 ! A188  A(37,32,171)          112.1861                                         !
 ! A189  A(154,32,169)         107.1403                                         !
 ! A190  A(154,32,171)         105.0521                                         !
 ! A191  A(169,32,171)         105.9756                                         !
 ! A192  A(38,33,164)          112.6346                                         !
 ! A193  A(38,33,166)          111.8164                                         !
 ! A194  A(38,33,179)          114.1674                                         !
 ! A195  A(164,33,166)         106.0917                                         !
 ! A196  A(164,33,179)         104.8503                                         !
 ! A197  A(166,33,179)         106.6539                                         !
 ! A198  A(36,34,161)          112.7813                                         !
 ! A199  A(36,34,168)          112.8728                                         !
 ! A200  A(36,34,178)          112.8684                                         !
 ! A201  A(161,34,168)         105.0846                                         !
 ! A202  A(161,34,178)         105.8331                                         !
 ! A203  A(168,34,178)         106.7796                                         !
 ! A204  A(159,35,170)         106.695                                          !
 ! A205  A(159,35,174)         107.3542                                         !
 ! A206  A(159,35,295)         110.7652                                         !
 ! A207  A(170,35,174)         107.0709                                         !
 ! A208  A(170,35,295)         113.2029                                         !
 ! A209  A(174,35,295)         111.4419                                         !
 ! A210  A(34,36,289)          108.7773                                         !
 ! A211  A(34,36,294)          106.2457                                         !
 ! A212  A(34,36,300)          110.4169                                         !
 ! A213  A(289,36,294)         111.2131                                         !
 ! A214  A(289,36,300)         109.6195                                         !
 ! A215  A(294,36,300)         110.51                                           !
 ! A216  A(32,37,290)          108.8044                                         !
 ! A217  A(32,37,296)          101.6074                                         !
 ! A218  A(32,37,299)          116.1476                                         !
 ! A219  A(290,37,296)         111.9745                                         !
 ! A220  A(290,37,299)         108.9906                                         !
 ! A221  A(296,37,299)         109.2119                                         !
 ! A222  A(33,38,291)          101.9434                                         !
 ! A223  A(33,38,296)          112.0648                                         !
 ! A224  A(33,38,301)          113.8384                                         !
 ! A225  A(291,38,296)         112.0755                                         !
 ! A226  A(291,38,301)         108.7459                                         !
 ! A227  A(296,38,301)         108.1068                                         !
 ! A228  A(292,39,294)         111.2768                                         !
 ! A229  A(292,39,297)         113.7376                                         !
 ! A230  A(292,39,302)         108.551                                          !
 ! A231  A(294,39,297)          99.6999                                         !
 ! A232  A(294,39,302)         111.1656                                         !
 ! A233  A(297,39,302)         112.2449                                         !
 ! A234  A(162,40,173)         108.9609                                         !
 ! A235  A(162,40,177)         107.9647                                         !
 ! A236  A(162,40,298)         111.5472                                         !
 ! A237  A(173,40,177)         107.6891                                         !
 ! A238  A(173,40,298)         107.5772                                         !
 ! A239  A(177,40,298)         112.974                                          !
 ! A240  A(293,41,295)         109.5441                                         !
 ! A241  A(293,41,298)         109.7293                                         !
 ! A242  A(293,41,303)         110.8183                                         !
 ! A243  A(295,41,298)         106.2613                                         !
 ! A244  A(295,41,303)         109.1072                                         !
 ! A245  A(298,41,303)         111.2651                                         !
 ! A246  A(43,42,172)          111.5604                                         !
 ! A247  A(43,42,190)          113.3132                                         !
 ! A248  A(43,42,191)          113.3742                                         !
 ! A249  A(172,42,190)         105.2928                                         !
 ! A250  A(172,42,191)         106.2056                                         !
 ! A251  A(190,42,191)         106.4868                                         !
 ! A252  A(42,43,294)          106.3484                                         !
 ! A253  A(42,43,299)          104.7847                                         !
 ! A254  A(42,43,305)          113.9693                                         !
 ! A255  A(294,43,299)         112.2669                                         !
 ! A256  A(294,43,305)         108.8022                                         !
 ! A257  A(299,43,305)         110.6245                                         !
 ! A258  A(45,44,176)          110.812                                          !
 ! A259  A(45,44,186)          115.0358                                         !
 ! A260  A(45,44,194)          110.8202                                         !
 ! A261  A(176,44,186)         107.2799                                         !
 ! A262  A(176,44,194)         105.3326                                         !
 ! A263  A(186,44,194)         107.0192                                         !
 ! A264  A(44,45,47)           102.2841                                         !
 ! A265  A(44,45,296)          107.8707                                         !
 ! A266  A(44,45,304)          110.1838                                         !
 ! A267  A(47,45,296)          115.7232                                         !
 ! A268  A(47,45,304)          111.8286                                         !
 ! A269  A(296,45,304)         108.6699                                         !
 ! A270  A(48,46,295)          106.7916                                         !
 ! A271  A(48,46,300)          114.9866                                         !
 ! A272  A(48,46,306)          106.5663                                         !
 ! A273  A(295,46,300)         109.3329                                         !
 ! A274  A(295,46,306)         109.9753                                         !
 ! A275  A(300,46,306)         109.0919                                         !
 ! A276  A(45,47,175)          111.0028                                         !
 ! A277  A(45,47,189)          115.7728                                         !
 ! A278  A(45,47,193)          109.4699                                         !
 ! A279  A(175,47,189)         107.721                                          !
 ! A280  A(175,47,193)         106.1657                                         !
 ! A281  A(189,47,193)         106.1854                                         !
 ! A282  A(46,48,183)          113.2014                                         !
 ! A283  A(46,48,184)          112.4133                                         !
 ! A284  A(46,48,202)          112.9593                                         !
 ! A285  A(183,48,184)         106.017                                          !
 ! A286  A(183,48,202)         106.3188                                         !
 ! A287  A(184,48,202)         105.3017                                         !
 ! A288  A(180,49,185)         107.3938                                         !
 ! A289  A(180,49,198)         107.7637                                         !
 ! A290  A(180,49,301)         115.1752                                         !
 ! A291  A(185,49,198)         106.6544                                         !
 ! A292  A(185,49,301)         107.4948                                         !
 ! A293  A(198,49,301)         111.9426                                         !
 ! A294  A(297,50,299)          97.071                                          !
 ! A295  A(297,50,301)         117.0735                                         !
 ! A296  A(297,50,307)         112.8054                                         !
 ! A297  A(299,50,301)         110.0798                                         !
 ! A298  A(299,50,307)         107.9671                                         !
 ! A299  A(301,50,307)         110.7069                                         !
 ! A300  A(298,51,300)         110.9796                                         !
 ! A301  A(298,51,302)         108.2669                                         !
 ! A302  A(298,51,308)         109.1723                                         !
 ! A303  A(300,51,302)         110.2674                                         !
 ! A304  A(300,51,308)         109.6552                                         !
 ! A305  A(302,51,308)         108.4449                                         !
 ! A306  A(181,52,187)         108.0756                                         !
 ! A307  A(181,52,199)         106.2561                                         !
 ! A308  A(181,52,303)         110.8621                                         !
 ! A309  A(187,52,199)         106.7198                                         !
 ! A310  A(187,52,303)         117.9092                                         !
 ! A311  A(199,52,303)         106.3368                                         !
 ! A312  A(182,53,188)         107.0359                                         !
 ! A313  A(182,53,201)         105.9811                                         !
 ! A314  A(182,53,303)         105.9691                                         !
 ! A315  A(188,53,201)         107.6974                                         !
 ! A316  A(188,53,303)         119.2248                                         !
 ! A317  A(201,53,303)         110.1394                                         !
 ! A318  A(58,54,299)          114.0131                                         !
 ! A319  A(58,54,304)          104.5107                                         !
 ! A320  A(58,54,309)          108.0382                                         !
 ! A321  A(299,54,304)         110.0617                                         !
 ! A322  A(299,54,309)         108.4929                                         !
 ! A323  A(304,54,309)         111.7262                                         !
 ! A324  A(57,55,300)          111.0155                                         !
 ! A325  A(57,55,305)          111.3021                                         !
 ! A326  A(57,55,310)          104.3574                                         !
 ! A327  A(300,55,305)         109.391                                          !
 ! A328  A(300,55,310)         109.8235                                         !
 ! A329  A(305,55,310)         110.8711                                         !
 ! A330  A(200,56,204)         106.3016                                         !
 ! A331  A(200,56,213)         106.7844                                         !
 ! A332  A(200,56,306)         109.6899                                         !
 ! A333  A(204,56,213)         107.9882                                         !
 ! A334  A(204,56,306)         113.9769                                         !
 ! A335  A(213,56,306)         111.7196                                         !
 ! A336  A(55,57,203)          112.6405                                         !
 ! A337  A(55,57,205)          113.8302                                         !
 ! A338  A(55,57,215)          112.4321                                         !
 ! A339  A(203,57,205)         106.4346                                         !
 ! A340  A(203,57,215)         105.9032                                         !
 ! A341  A(205,57,215)         104.9323                                         !
 ! A342  A(54,58,192)          113.2489                                         !
 ! A343  A(54,58,208)          111.5902                                         !
 ! A344  A(54,58,209)          113.5251                                         !
 ! A345  A(192,58,208)         106.4724                                         !
 ! A346  A(192,58,209)         106.6759                                         !
 ! A347  A(208,58,209)         104.6982                                         !
 ! A348  A(302,59,305)         111.3207                                         !
 ! A349  A(302,59,307)         108.1568                                         !
 ! A350  A(302,59,312)         107.733                                          !
 ! A351  A(305,59,307)         111.1971                                         !
 ! A352  A(305,59,312)         109.9711                                         !
[...]
               1
     1  C   -0.205915
     2  C   -0.191591
     3  C   -0.037130
     4  C   -0.027920
     5  C   -0.045484
     6  C   -0.195441
     7  C   -0.292819
     8  C   -0.182468
     9  C   -0.198224
    10  C   -0.518962
    11  C   -0.013791
    12  C   -0.204228
    13  C   -0.184121
    14  C   -0.024499
    15  C   -0.175737
    16  C   -0.489621
    17  C   -0.785832
    18  C   -0.508671
    19  C   -0.159159
    20  C   -0.179050
    21  C   -0.011174
    22  C   -0.032855
    23  C   -0.174229
    24  C   -0.197818
    25  C   -0.488393
    26  C   -0.456060
    27  C   -0.148599
    28  C   -0.731469
    29  C   -0.790288
    30  C   -0.191360
    31  C   -0.198818
    32  C   -0.014978
    33  C   -0.000482
    34  C   -0.029496
    35  C   -0.189927
    36  C   -0.464465
    37  C   -0.466412
    38  C   -0.521606
    39  C   -0.736627
    40  C   -0.149536
    41  C   -0.779151
    42  C   -0.025263
    43  C   -0.449778
    44  C   -0.034599
    45  C   -0.301486
    46  C   -0.465055
    47  C   -0.035150
    48  C   -0.032284
    49  C   -0.168529
    50  C   -0.748893
    51  C   -0.727427
    52  C   -0.197205
    53  C   -0.186689
    54  C   -0.492243
    55  C   -0.456211
    56  C   -0.195091
    57  C   -0.027102
    58  C   -0.012532
    59  C   -0.732514
    60  C   -0.779329
    61  C   -0.515372
    62  C   -0.146365
    63  C   -0.146065
    64  C    0.000481
    65  C   -0.197697
    66  C   -0.474820
    67  C   -0.047070
    68  C   -0.477113
    69  C   -0.789235
    70  C   -0.722114
    71  C   -0.031593
    72  C   -0.191262
    73  C   -0.148160
    74  C   -0.199280
    75  C   -0.185165
    76  C   -0.185722
    77  C   -0.187917
    78  C   -0.477903
    79  C   -0.507487
    80  C   -0.777854
    81  C   -0.027709
    82  C   -0.205218
    83  C   -0.181610
    84  C   -0.188375
    85  C   -0.007350
    86  C   -0.196572
    87  C   -0.298232
    88  C   -0.508868
    89  C   -0.190638
    90  C   -0.044357
    91  C   -0.201093
    92  C   -0.038912
    93  C   -0.012437
    94  C   -0.209907
    95  C   -0.192344
   282  O   -0.730133
   283  Si   0.751102
   284  Si   0.785666
   285  Si   0.728764
   286  Si   0.728350
   287  Si   0.714992
   288  Si   0.816935
   289  Si   0.658849
   290  Si   0.646121
   291  Si   0.789208
   292  Si   0.755210
   293  Si   0.790608
   294  Si   0.594396
   295  Si   0.724833
   296  Si   0.732812
   297  Si   0.725156
   298  Si   0.733125
   299  Si   0.612465
   300  Si   0.629314
   301  Si   0.723497
   302  Si   0.937834
   303  Si   0.783016
   304  Si   0.736163
   305  Si   0.675994
   306  Si   0.705572
   307  Si   0.750914
   308  Si   0.738205
   309  Si   0.736377
   310  Si   0.625296
   311  Si   0.792417
   312  Si   0.728618
   313  Si   0.784064
   314  Si   0.718889
   315  Si   0.723105
   316  Si   0.699481
   317  Si   0.805848
   318  Si   0.744410
   319  Si   0.775650
 Electronic spatial extent (au):  <R**2>=         174748.2443
 Charge=              0.0000 electrons
 Dipole moment (field-independent basis, Debye):
    X=             -4.3519    Y=              5.2186    Z=             -4.1070  Tot=              7.9398
 Quadrupole moment (field-independent basis, Debye-Ang):
   XX=          -1059.1900   YY=          -1049.4925   ZZ=          -1077.2458
   XY=            -11.9282   XZ=             -0.6403   YZ=              0.5669
 Traceless Quadrupole moment (field-independent basis, Debye-Ang):
   XX=              2.7861   YY=             12.4836   ZZ=            -15.2697
   XY=            -11.9282   XZ=             -0.6403   YZ=              0.5669
 Octapole moment (field-independent basis, Debye-Ang**2):
  XXX=            -81.3969  YYY=            222.7576  ZZZ=            -97.7119  XYY=           -108.2095
  XXY=             24.9790  XXZ=             74.5446  XZZ=            -25.9358  YZZ=             33.6598
  YYZ=             59.2255  XYZ=             -6.6998
 Hexadecapole moment (field-independent basis, Debye-Ang**3):
 XXXX=        -108950.9387 YYYY=        -107852.8729 ZZZZ=         -28166.0516 XXXY=           -253.1450
 XXXZ=             48.3915 YYYX=           -209.8268 YYYZ=             50.7168 ZZZX=             -3.7009
 ZZZY=              4.0489 XXYY=         -36101.3203 XXZZ=         -22693.4796 YYZZ=         -22577.5707
 XXYZ=            -39.1313 YYXZ=            -52.2040 ZZXY=            -67.1734
 N-N= 6.635612861484D+04 E-N=-1.670224187627D+05  KE= 1.443796065050D+04
 Leave Link  601 at Tue Feb  7 22:55:19 2023, MaxMem=  7247757312 cpu:               1.3 elap:               0.9
 (Enter /mmfs1/apps/gaussian16/c02-avx2/g16/l9999.exe)
 Unable to Open any file for archive entry.
 1\1\GINC-GPU0012\SP\RPBE1PBE TD-FC\6-31G(d)\C95H186O1Si37\DMITRI.KILIN
 \07-Feb-2023\0\\#p td=(singlets,nstates=120) geom=check nosymm pbe1pbe
 /6-31g* scf=maxcycles=500\\CONTCAR\\0,1\C,0,-7.4510100559,-2.995793215
 5,-1.855336939\C,0,-7.9838043218,-1.1012856184,1.0638957328\C,0,-6.332
 3300196,-6.1366122483,-1.2050241503\C,0,-6.9066538428,-4.1324107645,1.
 286049249\C,0,-5.5115516396,-5.1966589877,-3.2641190411\C,0,-6.2913283
 128,-1.5577434,3.3266829312\C,0,-5.3120982992,-5.0959539343,-1.7319812
 899\C,0,-7.0732016392,1.953774121,0.7286589721\C,0,-6.482472901,0.0950
 720203,-2.0430191853\C,0,-5.7371564284,-3.2498039134,0.7639350478\C,0,
 -4.4247139969,-6.6508572254,1.4614834109\C,0,-3.3775266643,-7.35058609
 04,-1.7526598126\C,0,-4.2185972759,-3.9676154581,3.2858194921\C,0,-4.4
 826109995,-2.0530215627,-3.3432842388\C,0,-5.6551051725,1.6954239554,3
 .1983891174\C,0,-4.4045541345,-2.057794881,-1.7868340171\C,0,-4.869039
 5013,-0.2453160136,0.738793533\C,0,-3.5105885662,-5.5540832178,0.83089
 41763\C,0,-5.6273871934,3.382716025,-1.8811313183\C,0,-6.1096837325,5.
 1160247037,1.1955898595\C,0,-3.8712063621,1.2351561607,-3.3725393636\C
 ,0,-2.1858244277,-4.682682195,-3.267673592\C,0,-4.3078422803,4.4651029
 029,3.4304150092\C,0,-1.4854276946,-7.8615036441,1.0346415967\C,0,-2.2
 142441261,-4.3590632135,-1.7404028138\C,0,-3.5728059913,1.0505523994,-
 1.8429252057\C,0,-3.010816582,-0.4767171755,3.2108518047\C,0,-2.662933
 24,-2.5240195555,0.760951168\C,0,-3.9741337716,2.7704768937,0.78683918
 16\C,0,-1.7679252955,-6.186946905,3.3790114653\C,0,-4.7343277834,6.623
 2464403,-1.6857371981\C,0,-2.9029104916,4.4092370004,-3.2827849794\C,0
 ,-3.6773206946,7.118138582,1.5357305699\C,0,-1.381684993,-1.2665149,-3
 .3823482416\C,0,-0.0518418559,-6.5068019473,-1.7815551727\C,0,-1.34289
 22754,-1.2695551184,-1.8212298659\C,0,-2.6980152275,4.1583847311,-1.75
 21005882\C,0,-3.1174098376,5.8112649366,0.8879277112\C,0,-1.7843825446
 ,0.5092927363,0.6486665761\C,0,-0.9421246964,-2.8553219114,3.273553038
 2\C,0,-0.4337028636,-4.7976589073,0.8305485625\C,0,-0.6111254918,1.927
 116504,-3.3966405352\C,0,-0.4847510834,1.8355860455,-1.8448204973\C,0,
 -2.1773298163,8.5713811166,-0.9210468092\C,0,-1.8021826908,7.221732991
 3,-1.5783468229\C,0,0.8548507002,-3.5441332322,-1.7790918685\C,0,-1.81
 64741386,7.5741490991,-3.0852990638\C,0,0.8689902565,-3.7379232964,-3.
 3279979967\C,0,-1.4088582285,5.5441090251,3.3680630656\C,0,-0.91402711
 47,3.5782771093,0.7668495647\C,0,0.4324563193,-1.759590571,0.700793470
 4\C,0,1.8221404417,-7.0962113137,0.9975890608\C,0,1.3468666781,-5.6078
 978527,3.3221546946\C,0,0.392914597,4.9276043792,-1.7317670612\C,0,1.7
 612188922,-0.498394082,-1.8264714349\C,0,3.0339806862,-5.6528743705,-2
 .0389851289\C,0,1.8828732608,-0.5531693011,-3.3828784527\C,0,0.4645545
 771,5.168402132,-3.2768916253\C,0,1.3033123675,1.278294755,0.666176843
 \C,0,2.6241965709,-4.0604370433,0.7662093867\C,0,0.0056409387,6.572714
 0998,0.9048438586\C,0,2.16239572,-2.2386393995,3.2397925498\C,0,0.6832
 89157,2.9599682668,3.2336512256\C,0,-0.1677171175,7.9925193531,1.53418
 83723\C,0,1.0357176118,8.0851702854,-1.6450280314\C,0,2.6013018757,2.5
 648095198,-1.8088805624\C,0,2.6795172386,2.6178571808,-3.3594047335\C,
 0,3.9772267157,-2.7967760067,-1.7990254303\C,0,2.1878957025,4.30960142
 6,0.7737034259\C,0,3.5384240285,-1.0160672581,0.7351398314\C,0,4.12403
 16346,-2.9962042044,-3.342848277\C,0,4.9271060231,-6.2957547611,0.7983
 629684\C,0,2.977598161,0.8026464086,3.2092132178\C,0,4.5401414667,-4.7
 755623074,3.2524056074\C,0,1.8609174827,6.1603839965,3.3937579188\C,0,
 3.2930392349,5.5859378124,-1.9702587833\C,0,2.9721401646,7.4214240753,
 1.0379755995\C,0,4.8576461952,0.2497726052,-1.8033759737\C,0,5.7021809
 34,-3.3123256984,0.7467930839\C,0,4.3862631609,2.0452039866,0.72911722
 96\C,0,5.1048115363,0.2669599057,-3.3486193374\C,0,6.3740704674,-4.884
 4620101,-1.9221344157\C,0,5.6151371199,-1.6514842472,3.2511487878\C,0,
 4.2296847496,4.1114396026,3.1796110391\C,0,7.0301551334,-3.9102738825,
 1.3156023772\C,0,5.5962552487,3.1302087505,-2.1060929975\C,0,7.0835389
 04,-1.9953835236,-1.748453642\C,0,6.5786385399,-0.2132865719,0.7790990
 548\C,0,5.2959160778,5.0254456883,0.6845129423\C,0,7.3953918842,-2.026
 5642113,-3.2635818307\C,0,6.2688610381,1.5215345558,3.3296551288\C,0,8
 .445530505,-2.4006492723,-1.1370190664\C,0,8.0196079018,-0.4217645332,
 1.33901522\C,0,7.9908912078,0.8744872179,-1.7868381139\C,0,7.516560411
 3,2.7457586971,1.0364016787\H,0,-7.9895558204,-3.9465028892,-1.9358375
 365\H,0,-8.573964124,-1.9913319095,1.3107085113\H,0,-7.3658383388,-5.7
 768325548,-1.2948556284\H,0,-7.8417200299,-3.9082073989,0.7590862655\H
 ,0,-8.0674106764,-2.3372667894,-1.2422181324\H,0,-8.3156819208,-0.3199
 501135,1.7532139883\H,0,-7.4160514953,-2.5723080241,-2.8637531983\H,0,
 -8.2677458021,-0.7856446103,0.0603264916\H,0,-7.1076308526,-3.98385568
 36,2.3534313634\H,0,-6.2789275726,-7.0474312847,-1.8162991194\H,0,-6.7
 439866678,-5.1983882511,1.1517668026\H,0,-6.1869351083,-6.4470732121,-
 0.1736153702\H,0,-6.5846612683,-5.1429882703,-3.4975327575\H,0,-7.7661
 543355,1.6552568263,1.5219195508\H,0,-7.1409909071,-0.9402670953,3.637
 9132459\H,0,-7.3252336061,-0.3369842676,-1.5061171323\H,0,-6.517007183
 6,-2.5719037165,3.667121747\H,0,-5.4283226295,-6.3012023572,1.70646445
 76\H,0,-6.6819238154,1.157445014,-2.1785225971\H,0,-7.3953168799,1.452
 1085748,-0.1822569535\H,0,-5.163314179,-6.1675322952,-3.6432167882\H,0
 ,-7.2077948454,3.0263149527,0.5978766156\H,0,-4.5381712928,-7.52034724
 42,0.8041778642\H,0,-6.4847836872,-0.36163432,-3.0375046424\H,0,-5.500
 5526952,-2.2279905703,-3.7100745723\H,0,-4.3359427065,-7.8667719533,-1
 .6286878737\H,0,-6.200070853,0.8274103246,3.5702002795\H,0,-5.14828225
 72,-4.5274361499,3.4484380783\H,0,-5.031965089,-4.4195689323,-3.855755
 1301\H,0,-5.4126464461,-1.217676745,3.8747463881\H,0,-6.4852919882,3.0
 05462704,-1.330443789\H,0,-4.025641505,-7.0370871844,2.4049473395\H,0,
 -6.808771149,4.6375975279,1.8890740709\H,0,-4.3111239625,-3.0296200826
 ,3.8292314637\H,0,-6.482804388,4.960911908,0.1819424635\H,0,-6.3259901
 917,2.5530358632,3.3155443311\H,0,-3.1630003472,-7.3469032457,-2.82683
 28335\H,0,-5.7239535011,3.0441716441,-2.9166651571\H,0,-4.1643116051,-
 1.1107232137,-3.7844302008\H,0,-3.8526721055,-2.8199032723,-3.79600019
 62\H,0,-4.9260773233,1.0587176601,-3.600037299\H,0,-5.6918323351,4.469
 5448583,-1.8942036675\H,0,-2.6255465588,-7.9662430386,-1.2602377855\H,
 0,-6.1526293383,6.1907423753,1.4033298991\H,0,-5.3118727001,4.26767196
 14,3.8122477827\H,0,-2.4492660496,-8.3807401813,1.0796682812\H,0,-4.79
 77091221,1.8531944435,3.8523127759\H,0,-3.4222638849,-4.5447406647,3.7
 489420298\H,0,-2.7409951019,-6.5225040144,3.7507783102\H,0,-5.62078591
 9,6.3480400421,-1.1115039298\H,0,-3.1802648937,-4.7371022984,-3.710281
 3598\H,0,-3.2757535095,-1.3493467148,3.8076009102\H,0,-3.6790774265,0.
 3357874987,3.4992383515\H,0,-1.7312212092,-5.6633725407,-3.4480901228\
 H,0,-4.9027576375,6.340781831,-2.73014175\H,0,-3.3055983801,0.57801643
 ,-4.0312880666\H,0,-3.6646417297,2.2435159172,-3.7308563631\H,0,-3.644
 9357347,3.7044166822,3.8510991194\H,0,-3.9582092833,4.3292445994,-3.56
 61636784\H,0,-0.851119532,-8.3293459444,1.7948911978\H,0,-1.0556904882
 ,-6.9667618403,3.6620073023\H,0,-1.0426634294,-8.0678309248,0.06011059
 97\H,0,-4.6802350181,7.7169001636,-1.6670577666\H,0,-0.9655940539,-7.0
 773583167,-1.950222183\H,0,-4.0004262499,5.4275527558,3.8446811782\H,0
 ,-2.0887642355,-0.5452851106,-3.7844507673\H,0,-1.9297713055,-3.103709
 73,3.6603785445\H,0,-1.4947078354,-5.2847623545,3.9257309939\H,0,-4.23
 60287025,6.9254267423,2.4595576668\H,0,-1.6125694124,-3.9813679148,-3.
 8696992972\H,0,-4.3691556658,7.6405880123,0.8658017053\H,0,-1.97820237
 87,-0.1899042157,3.4518820939\H,0,-1.6858716394,-2.2242749784,-3.79972
 96145\H,0,-2.3447991754,3.7301842418,-3.9274673926\H,0,0.4747787043,-6
 .4678122692,-2.7377711356\H,0,-2.6060545094,5.4150906955,-3.5782265479
 \H,0,-1.652664376,1.9409665672,-3.7130759387\H,0,-0.7074934608,-1.8193
 109672,3.5364998305\H,0,0.5695750912,-7.0833234342,-1.0975698895\H,0,-
 2.8365063958,7.800084752,-3.4274607381\H,0,-3.1382702362,8.9387371616,
 -1.3052574408\H,0,-0.2173382048,-3.494194238,3.7702303775\H,0,-0.41993
 84317,-1.0203018446,-3.8289404084\H,0,-2.9112978057,7.8396756109,1.818
 0206464\H,0,-1.8192367526,4.6927413568,3.9105755012\H,0,0.9594445757,-
 7.7627257017,1.0384635491\H,0,0.934093755,-6.6106563531,3.4721274961\H
 ,0,0.167749134,-3.0875441019,-3.8480220165\H,0,0.6094787526,-4.7588236
 996,-3.6229930255\H,0,-2.0445596096,6.4103236365,3.5879844316\H,0,-2.2
 497247525,8.5505408995,0.1609384729\H,0,2.3333977908,-7.2635371442,0.0
 522180717\H,0,0.795723352,-4.935337653,3.975815517\H,0,-1.4029416816,6
 .8193163842,-3.7518772664\H,0,-0.1649716404,1.0818517606,-3.9153771385
 \H,0,-0.1535940562,2.8242359205,-3.8159512975\H,0,-0.4867699499,4.9988
 262978,-3.7838129031\H,0,-1.2282219618,8.4866979665,-3.2535688468\H,0,
 -1.445695607,9.3477013699,-1.1791584142\H,0,1.454011357,-1.4785776618,
 3.5796952754\H,0,0.2153300486,1.991860525,3.464690575\H,0,-1.182241333
 1,8.2106478377,1.8677362949\H,0,-0.4291151221,5.7625721365,3.785718176
 3\H,0,2.5041914097,-7.4285739877,1.7879076298\H,0,2.6365864258,-5.6298
 443278,-3.0582277331\H,0,2.3741558524,-5.6498748428,3.6806623746\H,0,1
 .8464179924,-3.550418194,-3.7707768657\H,0,1.6147371156,-1.5265312823,
 -3.7902067486\H,0,2.6086437427,-6.5342532578,-1.5654518497\H,0,1.26271
 41531,0.1779013612,-3.8984936641\H,0,1.8578859075,-3.202254906,3.64629
 06052\H,0,0.0469621957,3.7652211096,3.591370159\H,0,0.7622789008,6.195
 222163,-3.5110753848\H,0,1.2016690555,4.5457189938,-3.7797767816\H,0,0
 .1102259465,8.78899181,0.835714674\H,0,1.7339630719,2.8808378144,-3.82
 68483333\H,0,1.9513730028,0.5812893878,3.5175640717\H,0,4.1102644758,-
 5.8027778793,-2.1240929514\H,0,0.4577502035,8.1370810513,2.4208665302\
 H,0,2.8965474755,-0.3543330478,-3.7277303746\H,0,0.4872981028,9.025131
 8953,-1.5181819119\H,0,3.1442118249,-2.0047848154,3.6505326725\H,0,1.6
 239160696,3.0068567887,3.780326436\H,0,3.4284367105,-2.4088488438,-3.9
 408346917\H,0,1.2110550541,6.95663959,3.7705104301\H,0,4.5706915716,-6
 .6116740703,-0.1821866003\H,0,3.9819048173,-4.0431379898,-3.6278337343
 \H,0,3.8731195693,-4.1542728744,3.8513704934\H,0,1.2426945994,8.000397
 7936,-2.7167169284\H,0,4.5881548388,-7.0423511724,1.5222045836\H,0,4.3
 399173071,-5.8226691374,3.5039308545\H,0,2.9333681902,1.6543461216,-3.
 7898629918\H,0,1.625991714,5.249411486,3.9436666468\H,0,3.6363272172,0
 .0611730179,3.6568034045\H,0,1.9867555196,8.2113517803,-1.1300802791\H
 ,0,3.4281749933,3.3324942653,-3.7208380807\H,0,2.8165463819,6.56388199
 88,-2.0268654095\H,0,3.2630849492,1.7783842691,3.6011600321\H,0,5.1216
 696149,-2.7414570654,-3.702206719\H,0,6.0329674679,-5.7948509384,-1.43
 00209426\H,0,6.021779252,-6.3423311624,0.7901789219\H,0,5.1271553641,-
 2.5033374992,3.7183712378\H,0,2.4772188463,8.3900465809,1.1733738467\H
 ,0,4.8829285055,-0.6906448641,-3.8180230279\H,0,5.5624887325,-4.577917
 1429,3.5881895501\H,0,4.5288761004,1.0179970953,-3.886359258\H,0,2.877
 0152235,6.4541761719,3.6682071848\H,0,3.502933742,5.2847527265,-3.0016
 180931\H,0,3.4315348098,3.8167380747,3.860636776\H,0,6.0975218975,-4.9
 473584321,-2.9801761936\H,0,3.3818625411,7.3924962046,0.0275565647\H,0
 ,5.3554507635,-0.7612189263,3.819935739\H,0,4.2479625287,5.7156650102,
 -1.4627857101\H,0,4.3984416249,5.1843494934,3.3136943061\H,0,3.8143610
 705,7.4038563575,1.7377665236\H,0,6.861330812,-4.6011541335,2.14800430
 07\H,0,5.338024082,1.4287275133,3.8878607639\H,0,6.6085048104,-1.66822
 57083,-3.9231187127\H,0,5.2819287606,4.168943929,-2.1861862967\H,0,6.1
 480422486,0.4900275437,-3.5958828896\H,0,7.4690587487,-4.8984590354,-1
 .885829361\H,0,5.7115714033,2.7566106204,-3.1288608758\H,0,6.695839569
 7,-1.8006110643,3.3760617446\H,0,5.1457926007,3.6180079552,3.5042772\H
 ,0,4.9059918687,6.0354925176,0.5649896177\H,0,7.581283114,-4.483712647
 5,0.562367067\H,0,7.6545324349,-3.0459909638,-3.5822560283\H,0,5.78349
 41459,4.7380117134,-0.2453909804\H,0,7.7193933728,-3.1624270984,1.7105
 720655\H,0,6.5889214231,3.1092744745,-1.6557733571\H,0,6.0751191348,5.
 0835365759,1.4513378567\H,0,6.9233851196,0.708664185,3.6553808002\H,0,
 6.7585788813,2.448106291,3.6483416021\H,0,8.4522027459,-2.5009220698,-
 0.0575545834\H,0,8.2789497439,-1.406371914,-3.4729943\H,0,8.787180083,
 -3.3578249814,-1.5543814385\H,0,8.2622893821,-1.4598299558,1.56389678\
 H,0,8.1922201901,0.1221607854,2.2744286396\H,0,7.7516354677,1.34832089
 35,-2.7426702109\H,0,7.524159603,3.2120990246,0.0515067801\H,0,8.27090
 83298,1.6665925512,-1.0913680675\H,0,7.4974263631,3.5536083933,1.77428
 52238\H,0,9.2238593895,-1.6707083569,-1.3986160653\H,0,8.7855037074,-0
 .0707304876,0.6376244826\H,0,8.8897235886,0.2709509655,-1.9555881125\H
 ,0,8.4729501609,2.2273363858,1.1722339255\O,0,-0.0843290557,0.08407671
 57,2.9462220072\Si,0,-5.7117562815,-3.3150596157,-1.1337127801\Si,0,-6
 .1494559032,-1.5063350329,1.417418982\Si,0,-3.5558078031,-5.5756897876
 ,-1.0757032745\Si,0,-4.8292022003,-0.2887841018,-1.1753387662\Si,0,-3.
 9920405592,-3.787643595,1.4093134042\Si,0,-5.3276343619,1.4950725225,1
 .3387011105\Si,0,-2.6551339351,-2.5554084426,-1.1627040036\Si,0,-3.962
 0706457,2.8190606503,-1.1655849974\Si,0,-4.3408772306,4.5001854863,1.5
 254884285\Si,0,-3.0963146649,-0.7390358531,1.3459685262\Si,0,-1.756319
 4557,-6.0204201681,1.4730622536\Si,0,-1.7831560707,0.5185703132,-1.268
 7765306\Si,0,-0.4528979766,-4.7810972681,-1.0733216695\Si,0,-3.0978446
 214,5.90707482,-1.0129955648\Si,0,-2.1934156855,2.2523373915,0.9631183
 586\Si,0,-0.8795235452,-2.9939320556,1.3944950073\Si,0,-0.9145984754,3
 .6262419976,-1.2041264277\Si,0,0.4315919032,-1.7626136265,-1.186509947
 \Si,0,-1.3474322089,5.3457588878,1.4814305773\Si,0,0.0140879822,0.0114
 100114,1.3697584501\Si,0,1.3202998784,-5.3056355512,1.4384998319\Si,0,
 -0.0570116406,6.6592727742,-0.9912067177\Si,0,1.2999905773,1.284123104
 9,-1.2182317462\Si,0,2.6169867169,-4.0170379692,-1.1491862763\Si,0,0.8
 816309054,3.0046207279,1.3623648164\Si,0,2.1855050042,-2.2622675371,1.
 3521664688\Si,0,2.1362795408,4.3237605803,-1.1368948926\Si,0,3.5338271
 409,-1.0173950303,-1.1828579038\Si,0,4.3744250651,-4.5552201521,1.3565
 723725\Si,0,3.0552093836,0.7657653905,1.3242166677\Si,0,1.7523386659,6
 .0249372558,1.488383049\Si,0,4.3605648265,2.0075056027,-1.1876618899\S
 i,0,5.7366604136,-3.2574218114,-1.1538326091\Si,0,5.3026007464,-1.5308
 392794,1.3802226568\Si,0,3.9673947654,3.8138708819,1.3216563084\Si,0,6
 .5913067229,-0.2456501127,-1.1175506604\Si,0,6.0978791784,1.5238598348
 ,1.4183589505\\Version=ES64L-G16RevC.02\HF=-14510.2373389\RMSD=5.302e-
 09\PG=C01 [X(C95H186O1Si37)]\\@
 The archive entry for this job was punched.


 NO HUMAN INVESTIGATION CAN BECOME REAL SCIENCE
 WITHOUT GOING THROUGH MATHEMATICAL PEOPLE.
 -- LEONARDO DA VINCI, IN "PENSIERI" CA. 1492
 Job cpu time:      33 days 22 hours 35 minutes 11.3 seconds.
 Elapsed time:       1 days  1 hours 57 minutes 43.3 seconds.
 File lengths (MBytes):  RWF= 318032 Int=      0 D2E=      0 Chk=  24992 Scr=     16
 Normal termination of Gaussian 16 at Tue Feb  7 22:55:32 2023.
