 Entering Gaussian System, Link 0=g16
 Initial command:
 /mmfs1/apps/gaussian16/c01-avx2/g16/l1.exe "/mmfs1/scratch/omolola.eniodunmo/g16.349427.bright03/Gau-3297395.inp" -scrdir="/mmfs1/scratch/omolola.eniodunmo/g16.349427.bright03/"
 Entering Link 1 = /mmfs1/apps/gaussian16/c01-avx2/g16/l1.exe PID=   3297398.
  
 Copyright (c) 1988-2019, Gaussian, Inc.  All Rights Reserved.
  
 This is part of the Gaussian(R) 16 program.  It is based on
 the Gaussian(R) 09 system (copyright 2009, Gaussian, Inc.),
 the Gaussian(R) 03 system (copyright 2003, Gaussian, Inc.),
 the Gaussian(R) 98 system (copyright 1998, Gaussian, Inc.),
 the Gaussian(R) 94 system (copyright 1995, Gaussian, Inc.),
 the Gaussian 92(TM) system (copyright 1992, Gaussian, Inc.),
 the Gaussian 90(TM) system (copyright 1990, Gaussian, Inc.),
 the Gaussian 88(TM) system (copyright 1988, Gaussian, Inc.),
 the Gaussian 86(TM) system (copyright 1986, Carnegie Mellon
 University), and the Gaussian 82(TM) system (copyright 1983,
 Carnegie Mellon University). Gaussian is a federally registered
 trademark of Gaussian, Inc.
  
 This software contains proprietary and confidential information,
 including trade secrets, belonging to Gaussian, Inc.
  
 This software is provided under written license and may be
 used, copied, transmitted, or stored only in accord with that
 written license.
  
 The following legend is applicable only to US Government
 contracts under FAR:
  
                    RESTRICTED RIGHTS LEGEND
  
 Use, reproduction and disclosure by the US Government is
 subject to restrictions as set forth in subparagraphs (a)
 and (c) of the Commercial Computer Software - Restricted
 Rights clause in FAR 52.227-19.
  
 Gaussian, Inc.
 340 Quinnipiac St., Bldg. 40, Wallingford CT 06492
  
  
 ---------------------------------------------------------------
 Warning -- This program may not be used in any manner that
 competes with the business of Gaussian, Inc. or will provide
 assistance to any competitor of Gaussian, Inc.  The licensee
 of this program is prohibited from giving any competitor of
 Gaussian, Inc. access to this program.  By using this program,
 the user acknowledges that Gaussian, Inc. is engaged in the
 business of creating and licensing software in the field of
 computational chemistry and represents and warrants to the
 licensee that it is not a competitor of Gaussian, Inc. and that
 it will not use this program in any manner prohibited above.
 ---------------------------------------------------------------
  

 Cite this work as:
 Gaussian 16, Revision C.01,
 M. J. Frisch, G. W. Trucks, H. B. Schlegel, G. E. Scuseria, 
 M. A. Robb, J. R. Cheeseman, G. Scalmani, V. Barone, 
 G. A. Petersson, H. Nakatsuji, X. Li, M. Caricato, A. V. Marenich, 
 J. Bloino, B. G. Janesko, R. Gomperts, B. Mennucci, H. P. Hratchian, 
 J. V. Ortiz, A. F. Izmaylov, J. L. Sonnenberg, D. Williams-Young, 
 F. Ding, F. Lipparini, F. Egidi, J. Goings, B. Peng, A. Petrone, 
 T. Henderson, D. Ranasinghe, V. G. Zakrzewski, J. Gao, N. Rega, 
 G. Zheng, W. Liang, M. Hada, M. Ehara, K. Toyota, R. Fukuda, 
 J. Hasegawa, M. Ishida, T. Nakajima, Y. Honda, O. Kitao, H. Nakai, 
 T. Vreven, K. Throssell, J. A. Montgomery, Jr., J. E. Peralta, 
 F. Ogliaro, M. J. Bearpark, J. J. Heyd, E. N. Brothers, K. N. Kudin, 
 V. N. Staroverov, T. A. Keith, R. Kobayashi, J. Normand, 
 K. Raghavachari, A. P. Rendell, J. C. Burant, S. S. Iyengar, 
 J. Tomasi, M. Cossi, J. M. Millam, M. Klene, C. Adamo, R. Cammi, 
 J. W. Ochterski, R. L. Martin, K. Morokuma, O. Farkas, 
 J. B. Foresman, and D. J. Fox, Gaussian, Inc., Wallingford CT, 2019.
 
 ******************************************
 Gaussian 16:  ES64L-G16RevC.01  3-Jul-2019
                28-Mar-2023 
 ******************************************
 %mem=18471520KB
 %nprocshared=10
 Will use up to   10 processors via shared memory.
 %lindaworkers=node0032-ib
 %chk=geometry.chk
 SetLPE:  input flags="-opt "Tsnet.Node.lindarsharg: ssh" "
 SetLPE:    new flags="-opt "Tsnet.Node.lindarsharg: ssh" -opt 'Tsnet.Node.lindarsharg: ssh'  -nodelist 'node0032-ib' -env GAUSS_MDEF=2364354560 -env GAUSS_EXEDIR="/mmfs1/apps/gaussian16/c01-avx2/g16/bsd:/mmfs1/apps/gaussian16/c01-avx2/g16/local:/mmfs1/apps/gaussian16/c01-avx2/g16/extras:/mmfs1/apps/gaussian16/c01-avx2/g16""
 Will use up to    1 processors via Linda.
 ---------------------------------------------
 #p ub3lyp/gen pseudo=cards pop=(orbitals=250)
 ---------------------------------------------
 1/38=1,172=1/1;
 2/12=2,17=6,18=5,40=1/2;
 3/5=7,11=2,16=1,17=8,25=1,30=1,74=-5,116=2/1,2,3;
 4//1;
 5/5=2,38=5/2;
 6/7=2,8=2,9=2,10=2,28=1,96=250/1;
 99/5=1,9=1/99;
 Leave Link    1 at Tue Mar 28 13:33:49 2023, MaxMem=  2364354560 cpu:               0.6 elap:               0.1
 (Enter /mmfs1/apps/gaussian16/c01-avx2/g16/l101.exe)
 -----------
 Se28Cd17H22
 -----------
 Symbolic Z-matrix:
 Charge = -1 Multiplicity = 1
 Se(Fragment=1)        15.25452   16.98046   16.33209 
 Se(Fragment=1)        20.65996   13.83413   14.40676 
 Se(Fragment=1)        18.01237   10.52382   13.28601 
 Se(Fragment=1)        14.26289   18.70272   12.46741 
 Se(Fragment=1)        16.28535   15.35536   20.47829 
 Se(Fragment=1)        10.2237   9.5206    15.29486 
 Se(Fragment=1)        8.81662   13.33623   17.47585 
 Se(Fragment=1)        8.73166   13.10233   12.6893 
 Se(Fragment=1)        17.71212   20.96767   16.82643 
 Se(Fragment=1)        13.44928   10.56041   12.03952 
 Se(Fragment=1)        12.00906   15.28594   10.71933 
 Se(Fragment=1)        10.64531   16.9423   14.97657 
 Se(Fragment=1)        11.93292   15.80154   19.40631 
 Se(Fragment=1)        13.20789   11.72751   19.45157 
 Se(Fragment=1)        14.54519   8.99841   16.10513 
 Se(Fragment=1)        18.834    8.75764   17.37618 
 Se(Fragment=1)        17.37776   11.16391   21.19867 
 Se(Fragment=1)        21.1134   12.57102   18.65667 
 Se(Fragment=1)        15.8135   16.4506   8.76634 
 Se(Fragment=1)        16.74679   11.75845   9.15695 
 Se(Fragment=1)        19.9618   14.98579   10.21007 
 Se(Fragment=1)        14.42531   19.5263   19.97641 
 Se(Fragment=1)        12.88955   20.8173   16.08139 
 Se(Fragment=1)        18.64977   17.98896   13.40231 
 Se(Fragment=1)        19.41972   16.73186   17.75709 
 Se(Fragment=1)        12.69584   13.39076   15.21001 
 Se(Fragment=1)        17.00955   12.80849   17.00655 
 Se(Fragment=1)        16.26265   14.40781   12.64638 
 Cd(Fragment=2)        9.00781   12.05289   15.02821 
 Cd(Fragment=2)        15.9123   11.74825   11.8914 
 Cd(Fragment=2)        15.20711   14.40433   15.37511 
 Cd(Fragment=2)        10.6772   14.82085   13.21199 
 Cd(Fragment=2)        15.24049   20.64777   17.53582 
 Cd(Fragment=2)        19.00014   10.91483   19.05995 
 Cd(Fragment=2)        17.40927   14.38955   9.47685 
 Cd(Fragment=2)        18.92926   15.34287   12.85891 
 Cd(Fragment=2)        17.74846   18.43007   16.11542 
 Cd(Fragment=2)        19.46918   14.15211   16.91375 
 Cd(Fragment=2)        10.99046   15.0646   16.90722 
 Cd(Fragment=2)        12.68826   10.70814   14.79722 
 Cd(Fragment=2)        14.49034   16.21899   11.32761 
 Cd(Fragment=2)        13.03343   18.19283   14.99545 
 Cd(Fragment=2)        14.44495   16.89914   19.0171 
 Cd(Fragment=2)        15.63115   12.81837   19.56159 
 Cd(Fragment=2)        16.95704   10.28514   15.8606 
 H(Fragment=3)         15.81983   19.47281   20.52246 
 H(Fragment=3)         13.55424   21.45556   14.89926 
 H(Fragment=3)         21.72259   11.74192   17.56589 
 H(Fragment=3)         17.79247   8.02327   18.16415 
 H(Fragment=3)         10.42136   9.47992   16.78091 
 H(Fragment=3)         20.41039   13.56944   10.40804 
 H(Fragment=3)         15.38775   11.99509   8.57233 
 H(Fragment=3)         16.62441   9.89242   20.94682 
 H(Fragment=3)         16.80837   17.49737   9.16921 
 H(Fragment=3)         20.0786   12.49541   14.05934 
 H(Fragment=3)         9.62774   12.37845   18.29653 
 H(Fragment=3)         12.99957   19.01864   11.72278 
 H(Fragment=3)         20.74955   17.11418   17.17947 
 H(Fragment=3)         14.74873   8.08506   14.93124 
 H(Fragment=3)         13.96225   9.1532    11.9556 
 H(Fragment=3)         12.38655   14.39961   19.73768 
 H(Fragment=3)         20.09829   18.3053   13.61903 
 H(Fragment=3)         15.45656   15.27226   21.72456 
 H(Fragment=3)         17.85138   9.1051    12.83535 
 H(Fragment=3)         12.31237   13.84024   10.4762 
 H(Fragment=3)         13.02128   12.12795   18.01156 
 
 ITRead=  0  0  0  0  0  0  0  0  0  0  0  0  0  0  0  0  0  0  0  0
 ITRead=  0  0  0  0  0  0  0  0  0  0  0  0  0  0  0  0  0  0  0  0
 ITRead=  0  0  0  0  0  0  0  0  0  0  0  0  0  0  0  0  0  0  0  0
 ITRead=  0  0  0  0  0  0
 MicOpt= -1 -1 -1 -1 -1 -1 -1 -1 -1 -1 -1 -1 -1 -1 -1 -1 -1 -1 -1 -1
 MicOpt= -1 -1 -1 -1 -1 -1 -1 -1 -1 -1 -1 -1 -1 -1 -1 -1 -1 -1 -1 -1
 MicOpt= -1 -1 -1 -1 -1 -1 -1 -1 -1 -1 -1 -1 -1 -1 -1 -1 -1 -1 -1 -1
 MicOpt= -1 -1 -1 -1 -1 -1
 NAtoms=     66 NQM=       66 NQMF=       0 NMMI=      0 NMMIF=      0
                NMic=       0 NMicF=      0.
                    Isotopes and Nuclear Properties:
 (Nuclear quadrupole moments (NQMom) in fm**2, nuclear magnetic moments (NMagM)
  in nuclear magnetons)

  Atom         1           2           3           4           5           6           7           8           9          10
 IAtWgt=          80          80          80          80          80          80          80          80          80          80
 AtmWgt=  79.9165205  79.9165205  79.9165205  79.9165205  79.9165205  79.9165205  79.9165205  79.9165205  79.9165205  79.9165205
 NucSpn=           0           0           0           0           0           0           0           0           0           0
 AtZEff=  -0.0000000  -0.0000000  -0.0000000  -0.0000000  -0.0000000  -0.0000000  -0.0000000  -0.0000000  -0.0000000  -0.0000000
 NQMom=    0.0000000   0.0000000   0.0000000   0.0000000   0.0000000   0.0000000   0.0000000   0.0000000   0.0000000   0.0000000
 NMagM=    0.0000000   0.0000000   0.0000000   0.0000000   0.0000000   0.0000000   0.0000000   0.0000000   0.0000000   0.0000000
 AtZNuc=  34.0000000  34.0000000  34.0000000  34.0000000  34.0000000  34.0000000  34.0000000  34.0000000  34.0000000  34.0000000

  Atom        11          12          13          14          15          16          17          18          19          20
 IAtWgt=          80          80          80          80          80          80          80          80          80          80
 AtmWgt=  79.9165205  79.9165205  79.9165205  79.9165205  79.9165205  79.9165205  79.9165205  79.9165205  79.9165205  79.9165205
 NucSpn=           0           0           0           0           0           0           0           0           0           0
 AtZEff=  -0.0000000  -0.0000000  -0.0000000  -0.0000000  -0.0000000  -0.0000000  -0.0000000  -0.0000000  -0.0000000  -0.0000000
 NQMom=    0.0000000   0.0000000   0.0000000   0.0000000   0.0000000   0.0000000   0.0000000   0.0000000   0.0000000   0.0000000
 NMagM=    0.0000000   0.0000000   0.0000000   0.0000000   0.0000000   0.0000000   0.0000000   0.0000000   0.0000000   0.0000000
 AtZNuc=  34.0000000  34.0000000  34.0000000  34.0000000  34.0000000  34.0000000  34.0000000  34.0000000  34.0000000  34.0000000

  Atom        21          22          23          24          25          26          27          28          29          30
 IAtWgt=          80          80          80          80          80          80          80          80         114         114
 AtmWgt=  79.9165205  79.9165205  79.9165205  79.9165205  79.9165205  79.9165205  79.9165205  79.9165205 113.9036000 113.9036000
 NucSpn=           0           0           0           0           0           0           0           0           0           0
 AtZEff=  -0.0000000  -0.0000000  -0.0000000  -0.0000000  -0.0000000  -0.0000000  -0.0000000  -0.0000000  -0.0000000  -0.0000000
 NQMom=    0.0000000   0.0000000   0.0000000   0.0000000   0.0000000   0.0000000   0.0000000   0.0000000   0.0000000   0.0000000
 NMagM=    0.0000000   0.0000000   0.0000000   0.0000000   0.0000000   0.0000000   0.0000000   0.0000000   0.0000000   0.0000000
 AtZNuc=  34.0000000  34.0000000  34.0000000  34.0000000  34.0000000  34.0000000  34.0000000  34.0000000  48.0000000  48.0000000

  Atom        31          32          33          34          35          36          37          38          39          40
 IAtWgt=         114         114         114         114         114         114         114         114         114         114
 AtmWgt= 113.9036000 113.9036000 113.9036000 113.9036000 113.9036000 113.9036000 113.9036000 113.9036000 113.9036000 113.9036000
 NucSpn=           0           0           0           0           0           0           0           0           0           0
 AtZEff=  -0.0000000  -0.0000000  -0.0000000  -0.0000000  -0.0000000  -0.0000000  -0.0000000  -0.0000000  -0.0000000  -0.0000000
 NQMom=    0.0000000   0.0000000   0.0000000   0.0000000   0.0000000   0.0000000   0.0000000   0.0000000   0.0000000   0.0000000
 NMagM=    0.0000000   0.0000000   0.0000000   0.0000000   0.0000000   0.0000000   0.0000000   0.0000000   0.0000000   0.0000000
 AtZNuc=  48.0000000  48.0000000  48.0000000  48.0000000  48.0000000  48.0000000  48.0000000  48.0000000  48.0000000  48.0000000

  Atom        41          42          43          44          45          46          47          48          49          50
 IAtWgt=         114         114         114         114         114           1           1           1           1           1
 AtmWgt= 113.9036000 113.9036000 113.9036000 113.9036000 113.9036000   1.0078250   1.0078250   1.0078250   1.0078250   1.0078250
 NucSpn=           0           0           0           0           0           1           1           1           1           1
 AtZEff=  -0.0000000  -0.0000000  -0.0000000  -0.0000000  -0.0000000  -0.0000000  -0.0000000  -0.0000000  -0.0000000  -0.0000000
 NQMom=    0.0000000   0.0000000   0.0000000   0.0000000   0.0000000   0.0000000   0.0000000   0.0000000   0.0000000   0.0000000
 NMagM=    0.0000000   0.0000000   0.0000000   0.0000000   0.0000000   2.7928460   2.7928460   2.7928460   2.7928460   2.7928460
 AtZNuc=  48.0000000  48.0000000  48.0000000  48.0000000  48.0000000   1.0000000   1.0000000   1.0000000   1.0000000   1.0000000

  Atom        51          52          53          54          55          56          57          58          59          60
 IAtWgt=           1           1           1           1           1           1           1           1           1           1
 AtmWgt=   1.0078250   1.0078250   1.0078250   1.0078250   1.0078250   1.0078250   1.0078250   1.0078250   1.0078250   1.0078250
 NucSpn=           1           1           1           1           1           1           1           1           1           1
 AtZEff=  -0.0000000  -0.0000000  -0.0000000  -0.0000000  -0.0000000  -0.0000000  -0.0000000  -0.0000000  -0.0000000  -0.0000000
 NQMom=    0.0000000   0.0000000   0.0000000   0.0000000   0.0000000   0.0000000   0.0000000   0.0000000   0.0000000   0.0000000
 NMagM=    2.7928460   2.7928460   2.7928460   2.7928460   2.7928460   2.7928460   2.7928460   2.7928460   2.7928460   2.7928460
 AtZNuc=   1.0000000   1.0000000   1.0000000   1.0000000   1.0000000   1.0000000   1.0000000   1.0000000   1.0000000   1.0000000

  Atom        61          62          63          64          65          66
 IAtWgt=           1           1           1           1           1           1
 AtmWgt=   1.0078250   1.0078250   1.0078250   1.0078250   1.0078250   1.0078250
 NucSpn=           1           1           1           1           1           1
 AtZEff=  -0.0000000  -0.0000000  -0.0000000  -0.0000000  -0.0000000  -0.0000000
 NQMom=    0.0000000   0.0000000   0.0000000   0.0000000   0.0000000   0.0000000
 NMagM=    2.7928460   2.7928460   2.7928460   2.7928460   2.7928460   2.7928460
 AtZNuc=   1.0000000   1.0000000   1.0000000   1.0000000   1.0000000   1.0000000
 Leave Link  101 at Tue Mar 28 13:33:49 2023, MaxMem=  2364354560 cpu:               0.7 elap:               0.1
 (Enter /mmfs1/apps/gaussian16/c01-avx2/g16/l202.exe)
 Stoichiometry    Cd17H21Se28(1-)
 Framework group  C1[X(Cd17H21Se28)]
 Deg. of freedom   192
 Full point group                 C1      NOp   1
 Largest Abelian subgroup         C1      NOp   1
 Largest concise Abelian subgroup C1      NOp   1
                         Standard orientation:                         
 ---------------------------------------------------------------------
 Center     Atomic      Atomic             Coordinates (Angstroms)
 Number     Number       Type             X           Y           Z
 ---------------------------------------------------------------------
      1         34           0       -0.441992    2.693819    0.050592
      2         34           0       -4.754590   -1.615948    2.428075
      3         34           0       -1.867217   -4.719648    1.308235
      4         34           0        1.888732    3.144183    3.690675
      5         34           0       -2.912639    2.422793   -3.785675
      6         34           0        4.649253   -3.930126   -3.447558
      7         34           0        5.144827    0.547980   -4.445846
      8         34           0        6.977190   -1.257004   -0.401411
      9         34           0       -2.925953    6.245515    1.893796
     10         34           0        2.835238   -4.483906    0.851919
     11         34           0        4.639779   -0.321625    3.211328
     12         34           0        4.343598    2.829673   -0.353637
     13         34           0        1.528252    3.070359   -4.174345
     14         34           0        0.341615   -0.887529   -5.247819
     15         34           0        0.333272   -4.731799   -2.869483
     16         34           0       -4.122117   -5.112675   -2.601360
     17         34           0       -4.176074   -1.394482   -5.549975
     18         34           0       -6.727364   -1.436497   -1.564265
     19         34           0        1.809799   -0.402442    6.621470
     20         34           0        0.817177   -4.775351    4.909084
     21         34           0       -2.573135   -1.848452    6.250780
     22         34           0       -1.014771    6.397821   -2.479671
     23         34           0        1.835136    6.509430    0.846285
     24         34           0       -2.532955    2.196573    4.113721
     25         34           0       -4.838679    2.373786    0.140129
     26         34           0        2.364263   -0.682992   -1.138504
     27         34           0       -2.305307   -1.210321   -1.441400
     28         34           0       -0.020432   -1.073234    2.668025
     29         48           0        5.868161   -1.492350   -2.717167
     30         48           0        0.592682   -3.758802    2.246392
     31         48           0       -0.037159   -0.022401   -0.062471
     32         48           0        4.968472    0.257185    0.425565
     33         48           0       -0.884355    6.518636    0.321592
     34         48           0       -4.901814   -2.560648   -3.230140
     35         48           0        0.072998   -2.303865    5.804546
     36         48           0       -2.583458   -0.491060    3.727409
     37         48           0       -2.689269    3.636031    1.609449
     38         48           0       -4.565583   -0.320972   -0.039999
     39         48           0        3.323151    1.676042   -2.589738
     40         48           0        2.533226   -3.322223   -1.749080
     41         48           0        2.104335    0.415905    3.863198
     42         48           0        2.109356    3.679162    0.892880
     43         48           0       -0.671281    3.624139   -2.586296
     44         48           0       -1.958048   -0.161309   -4.126037
     45         48           0       -1.826759   -3.939721   -1.373042
     46          1           0       -2.512158    6.341437   -2.498878
     47          1           0        1.646806    6.620090    2.329147
     48          1           0       -6.891590   -2.656609   -0.708311
     49          1           0       -3.438420   -5.393581   -3.904679
     50          1           0        3.921432   -3.498631   -4.685764
     51          1           0       -3.057356   -3.164298    5.721107
     52          1           0        2.294930   -4.565809    5.039849
     53          1           0       -3.377718   -2.562657   -6.045592
     54          1           0        0.732310    0.573832    6.987103
     55          1           0       -4.081032   -2.902031    2.049744
     56          1           0        4.093426   -0.181256   -5.227863
     57          1           0        3.335676    3.361290    4.021554
     58          1           0       -5.866237    2.357500    1.231966
     59          1           0        0.577302   -6.003339   -2.109679
     60          1           0        2.394260   -5.894074    0.592287
     61          1           0        0.990436    1.811827   -4.812974
     62          1           0       -3.961512    2.367904    4.532193
     63          1           0       -2.597316    2.873637   -5.180058
     64          1           0       -1.546722   -6.171754    1.133755
     65          1           0        4.452356   -1.792475    3.004802
     66          1           0        1.040851   -0.969559   -3.916224
 ---------------------------------------------------------------------
 Rotational constants (GHZ):           0.0061925           0.0060257           0.0058877
 Leave Link  202 at Tue Mar 28 13:33:49 2023, MaxMem=  2364354560 cpu:               0.0 elap:               0.0
 (Enter /mmfs1/apps/gaussian16/c01-avx2/g16/l301.exe)
 General basis read from cards:  (5D, 7F)
 Centers:      46     47     48     49     50     51     52     53     54     55
 Centers:      56     57     58     59     60     61     62     63     64     65
 Centers:      66
 6-31g*
 ****
 Centers:      29     30     31     32     33     34     35     36     37     38
 Centers:      39     40     41     42     43     44     45      1      2      3
 Centers:       4      5      6      7      8      9     10     11     12     13
 Centers:      14     15     16     17     18     19     20     21     22     23
 Centers:      24     25     26     27     28
 LANL2DZ
 ****
 ======================================================================================================
                                       Pseudopotential Parameters
 ======================================================================================================
  Center     Atomic      Valence      Angular      Power
  Number     Number     Electrons     Momentum     of R      Exponent        Coefficient   SO-Coeffient
 ======================================================================================================
    1         34            6
                                      F and up 
                                                     1      433.1931336      -28.00000000    0.00000000
                                                     2       83.8952157     -214.38417620    0.00000000
                                                     2       18.5839139      -65.69187820    0.00000000
                                                     2        5.3955286      -24.61539320    0.00000000
                                                     2        1.7474326       -2.44814970    0.00000000
                                      S - F
                                                     0      202.8986193        3.00000000    0.00000000
                                                     1       78.3820487       62.02953900    0.00000000
                                                     2       35.0753037      258.85559840    0.00000000
                                                     2       10.8769543      118.78001530    0.00000000
                                                     2        2.8005941       38.23552790    0.00000000
                                      P - F
                                                     0       44.3011875        5.00000000    0.00000000
                                                     1       20.3874206       24.79734580    0.00000000
                                                     2       23.1889948       63.75756400    0.00000000
                                                     2        7.9777664       79.05128310    0.00000000
                                                     2        2.2988146       22.95201830    0.00000000
                                      D - F
                                                     0       73.3628263        3.00000000    0.00000000
                                                     1       48.3835618       22.47059070    0.00000000
                                                     2       25.6297211      140.54928870    0.00000000
                                                     2        7.1705822       63.57818350    0.00000000
                                                     2        1.3639538        7.07536140    0.00000000
    2         34            6
                                      F and up 
                                                     1      433.1931336      -28.00000000    0.00000000
                                                     2       83.8952157     -214.38417620    0.00000000
                                                     2       18.5839139      -65.69187820    0.00000000
                                                     2        5.3955286      -24.61539320    0.00000000
                                                     2        1.7474326       -2.44814970    0.00000000
                                      S - F
                                                     0      202.8986193        3.00000000    0.00000000
                                                     1       78.3820487       62.02953900    0.00000000
                                                     2       35.0753037      258.85559840    0.00000000
                                                     2       10.8769543      118.78001530    0.00000000
                                                     2        2.8005941       38.23552790    0.00000000
                                      P - F
                                                     0       44.3011875        5.00000000    0.00000000
                                                     1       20.3874206       24.79734580    0.00000000
                                                     2       23.1889948       63.75756400    0.00000000
                                                     2        7.9777664       79.05128310    0.00000000
                                                     2        2.2988146       22.95201830    0.00000000
                                      D - F
                                                     0       73.3628263        3.00000000    0.00000000
                                                     1       48.3835618       22.47059070    0.00000000
                                                     2       25.6297211      140.54928870    0.00000000
                                                     2        7.1705822       63.57818350    0.00000000
                                                     2        1.3639538        7.07536140    0.00000000
    3         34            6
                                      F and up 
                                                     1      433.1931336      -28.00000000    0.00000000
                                                     2       83.8952157     -214.38417620    0.00000000
                                                     2       18.5839139      -65.69187820    0.00000000
                                                     2        5.3955286      -24.61539320    0.00000000
                                                     2        1.7474326       -2.44814970    0.00000000
                                      S - F
                                                     0      202.8986193        3.00000000    0.00000000
                                                     1       78.3820487       62.02953900    0.00000000
                                                     2       35.0753037      258.85559840    0.00000000
                                                     2       10.8769543      118.78001530    0.00000000
                                                     2        2.8005941       38.23552790    0.00000000
                                      P - F
                                                     0       44.3011875        5.00000000    0.00000000
                                                     1       20.3874206       24.79734580    0.00000000
                                                     2       23.1889948       63.75756400    0.00000000
                                                     2        7.9777664       79.05128310    0.00000000
                                                     2        2.2988146       22.95201830    0.00000000
                                      D - F
                                                     0       73.3628263        3.00000000    0.00000000
                                                     1       48.3835618       22.47059070    0.00000000
                                                     2       25.6297211      140.54928870    0.00000000
                                                     2        7.1705822       63.57818350    0.00000000
                                                     2        1.3639538        7.07536140    0.00000000
    4         34            6
                                      F and up 
                                                     1      433.1931336      -28.00000000    0.00000000
                                                     2       83.8952157     -214.38417620    0.00000000
                                                     2       18.5839139      -65.69187820    0.00000000
                                                     2        5.3955286      -24.61539320    0.00000000
                                                     2        1.7474326       -2.44814970    0.00000000
                                      S - F
                                                     0      202.8986193        3.00000000    0.00000000
                                                     1       78.3820487       62.02953900    0.00000000
                                                     2       35.0753037      258.85559840    0.00000000
                                                     2       10.8769543      118.78001530    0.00000000
                                                     2        2.8005941       38.23552790    0.00000000
                                      P - F
                                                     0       44.3011875        5.00000000    0.00000000
                                                     1       20.3874206       24.79734580    0.00000000
                                                     2       23.1889948       63.75756400    0.00000000
                                                     2        7.9777664       79.05128310    0.00000000
                                                     2        2.2988146       22.95201830    0.00000000
                                      D - F
                                                     0       73.3628263        3.00000000    0.00000000
                                                     1       48.3835618       22.47059070    0.00000000
                                                     2       25.6297211      140.54928870    0.00000000
                                                     2        7.1705822       63.57818350    0.00000000
                                                     2        1.3639538        7.07536140    0.00000000
    5         34            6
                                      F and up 
                                                     1      433.1931336      -28.00000000    0.00000000
                                                     2       83.8952157     -214.38417620    0.00000000
                                                     2       18.5839139      -65.69187820    0.00000000
                                                     2        5.3955286      -24.61539320    0.00000000
                                                     2        1.7474326       -2.44814970    0.00000000
                                      S - F
                                                     0      202.8986193        3.00000000    0.00000000
                                                     1       78.3820487       62.02953900    0.00000000
                                                     2       35.0753037      258.85559840    0.00000000
                                                     2       10.8769543      118.78001530    0.00000000
                                                     2        2.8005941       38.23552790    0.00000000
                                      P - F
                                                     0       44.3011875        5.00000000    0.00000000
                                                     1       20.3874206       24.79734580    0.00000000
                                                     2       23.1889948       63.75756400    0.00000000
                                                     2        7.9777664       79.05128310    0.00000000
                                                     2        2.2988146       22.95201830    0.00000000
                                      D - F
                                                     0       73.3628263        3.00000000    0.00000000
                                                     1       48.3835618       22.47059070    0.00000000
                                                     2       25.6297211      140.54928870    0.00000000
                                                     2        7.1705822       63.57818350    0.00000000
                                                     2        1.3639538        7.07536140    0.00000000
    6         34            6
                                      F and up 
                                                     1      433.1931336      -28.00000000    0.00000000
                                                     2       83.8952157     -214.38417620    0.00000000
                                                     2       18.5839139      -65.69187820    0.00000000
                                                     2        5.3955286      -24.61539320    0.00000000
                                                     2        1.7474326       -2.44814970    0.00000000
                                      S - F
                                                     0      202.8986193        3.00000000    0.00000000
                                                     1       78.3820487       62.02953900    0.00000000
                                                     2       35.0753037      258.85559840    0.00000000
                                                     2       10.8769543      118.78001530    0.00000000
                                                     2        2.8005941       38.23552790    0.00000000
                                      P - F
                                                     0       44.3011875        5.00000000    0.00000000
                                                     1       20.3874206       24.79734580    0.00000000
                                                     2       23.1889948       63.75756400    0.00000000
                                                     2        7.9777664       79.05128310    0.00000000
                                                     2        2.2988146       22.95201830    0.00000000
                                      D - F
                                                     0       73.3628263        3.00000000    0.00000000
                                                     1       48.3835618       22.47059070    0.00000000
                                                     2       25.6297211      140.54928870    0.00000000
                                                     2        7.1705822       63.57818350    0.00000000
                                                     2        1.3639538        7.07536140    0.00000000
    7         34            6
                                      F and up 
                                                     1      433.1931336      -28.00000000    0.00000000
                                                     2       83.8952157     -214.38417620    0.00000000
                                                     2       18.5839139      -65.69187820    0.00000000
                                                     2        5.3955286      -24.61539320    0.00000000
                                                     2        1.7474326       -2.44814970    0.00000000
                                      S - F
                                                     0      202.8986193        3.00000000    0.00000000
                                                     1       78.3820487       62.02953900    0.00000000
                                                     2       35.0753037      258.85559840    0.00000000
                                                     2       10.8769543      118.78001530    0.00000000
                                                     2        2.8005941       38.23552790    0.00000000
                                      P - F
                                                     0       44.3011875        5.00000000    0.00000000
                                                     1       20.3874206       24.79734580    0.00000000
                                                     2       23.1889948       63.75756400    0.00000000
                                                     2        7.9777664       79.05128310    0.00000000
                                                     2        2.2988146       22.95201830    0.00000000
                                      D - F
                                                     0       73.3628263        3.00000000    0.00000000
                                                     1       48.3835618       22.47059070    0.00000000
                                                     2       25.6297211      140.54928870    0.00000000
                                                     2        7.1705822       63.57818350    0.00000000
                                                     2        1.3639538        7.07536140    0.00000000
    8         34            6
                                      F and up 
                                                     1      433.1931336      -28.00000000    0.00000000
                                                     2       83.8952157     -214.38417620    0.00000000
                                                     2       18.5839139      -65.69187820    0.00000000
                                                     2        5.3955286      -24.61539320    0.00000000
                                                     2        1.7474326       -2.44814970    0.00000000
                                      S - F
                                                     0      202.8986193        3.00000000    0.00000000
                                                     1       78.3820487       62.02953900    0.00000000
                                                     2       35.0753037      258.85559840    0.00000000
                                                     2       10.8769543      118.78001530    0.00000000
                                                     2        2.8005941       38.23552790    0.00000000
                                      P - F
                                                     0       44.3011875        5.00000000    0.00000000
                                                     1       20.3874206       24.79734580    0.00000000
                                                     2       23.1889948       63.75756400    0.00000000
                                                     2        7.9777664       79.05128310    0.00000000
                                                     2        2.2988146       22.95201830    0.00000000
                                      D - F
                                                     0       73.3628263        3.00000000    0.00000000
                                                     1       48.3835618       22.47059070    0.00000000
                                                     2       25.6297211      140.54928870    0.00000000
                                                     2        7.1705822       63.57818350    0.00000000
                                                     2        1.3639538        7.07536140    0.00000000
    9         34            6
                                      F and up 
                                                     1      433.1931336      -28.00000000    0.00000000
                                                     2       83.8952157     -214.38417620    0.00000000
                                                     2       18.5839139      -65.69187820    0.00000000
                                                     2        5.3955286      -24.61539320    0.00000000
                                                     2        1.7474326       -2.44814970    0.00000000
                                      S - F
                                                     0      202.8986193        3.00000000    0.00000000
                                                     1       78.3820487       62.02953900    0.00000000
                                                     2       35.0753037      258.85559840    0.00000000
                                                     2       10.8769543      118.78001530    0.00000000
                                                     2        2.8005941       38.23552790    0.00000000
                                      P - F
                                                     0       44.3011875        5.00000000    0.00000000
                                                     1       20.3874206       24.79734580    0.00000000
                                                     2       23.1889948       63.75756400    0.00000000
                                                     2        7.9777664       79.05128310    0.00000000
                                                     2        2.2988146       22.95201830    0.00000000
                                      D - F
                                                     0       73.3628263        3.00000000    0.00000000
                                                     1       48.3835618       22.47059070    0.00000000
                                                     2       25.6297211      140.54928870    0.00000000
                                                     2        7.1705822       63.57818350    0.00000000
                                                     2        1.3639538        7.07536140    0.00000000
   10         34            6
                                      F and up 
                                                     1      433.1931336      -28.00000000    0.00000000
                                                     2       83.8952157     -214.38417620    0.00000000
                                                     2       18.5839139      -65.69187820    0.00000000
                                                     2        5.3955286      -24.61539320    0.00000000
                                                     2        1.7474326       -2.44814970    0.00000000
                                      S - F
                                                     0      202.8986193        3.00000000    0.00000000
                                                     1       78.3820487       62.02953900    0.00000000
                                                     2       35.0753037      258.85559840    0.00000000
                                                     2       10.8769543      118.78001530    0.00000000
                                                     2        2.8005941       38.23552790    0.00000000
                                      P - F
                                                     0       44.3011875        5.00000000    0.00000000
                                                     1       20.3874206       24.79734580    0.00000000
                                                     2       23.1889948       63.75756400    0.00000000
                                                     2        7.9777664       79.05128310    0.00000000
                                                     2        2.2988146       22.95201830    0.00000000
                                      D - F
                                                     0       73.3628263        3.00000000    0.00000000
                                                     1       48.3835618       22.47059070    0.00000000
                                                     2       25.6297211      140.54928870    0.00000000
                                                     2        7.1705822       63.57818350    0.00000000
                                                     2        1.3639538        7.07536140    0.00000000
   11         34            6
                                      F and up 
                                                     1      433.1931336      -28.00000000    0.00000000
                                                     2       83.8952157     -214.38417620    0.00000000
                                                     2       18.5839139      -65.69187820    0.00000000
                                                     2        5.3955286      -24.61539320    0.00000000
                                                     2        1.7474326       -2.44814970    0.00000000
                                      S - F
                                                     0      202.8986193        3.00000000    0.00000000
                                                     1       78.3820487       62.02953900    0.00000000
                                                     2       35.0753037      258.85559840    0.00000000
                                                     2       10.8769543      118.78001530    0.00000000
                                                     2        2.8005941       38.23552790    0.00000000
                                      P - F
                                                     0       44.3011875        5.00000000    0.00000000
                                                     1       20.3874206       24.79734580    0.00000000
                                                     2       23.1889948       63.75756400    0.00000000
                                                     2        7.9777664       79.05128310    0.00000000
                                                     2        2.2988146       22.95201830    0.00000000
                                      D - F
                                                     0       73.3628263        3.00000000    0.00000000
                                                     1       48.3835618       22.47059070    0.00000000
                                                     2       25.6297211      140.54928870    0.00000000
                                                     2        7.1705822       63.57818350    0.00000000
                                                     2        1.3639538        7.07536140    0.00000000
   12         34            6
                                      F and up 
                                                     1      433.1931336      -28.00000000    0.00000000
                                                     2       83.8952157     -214.38417620    0.00000000
                                                     2       18.5839139      -65.69187820    0.00000000
                                                     2        5.3955286      -24.61539320    0.00000000
                                                     2        1.7474326       -2.44814970    0.00000000
                                      S - F
                                                     0      202.8986193        3.00000000    0.00000000
                                                     1       78.3820487       62.02953900    0.00000000
                                                     2       35.0753037      258.85559840    0.00000000
                                                     2       10.8769543      118.78001530    0.00000000
                                                     2        2.8005941       38.23552790    0.00000000
                                      P - F
                                                     0       44.3011875        5.00000000    0.00000000
                                                     1       20.3874206       24.79734580    0.00000000
                                                     2       23.1889948       63.75756400    0.00000000
                                                     2        7.9777664       79.05128310    0.00000000
                                                     2        2.2988146       22.95201830    0.00000000
                                      D - F
                                                     0       73.3628263        3.00000000    0.00000000
                                                     1       48.3835618       22.47059070    0.00000000
                                                     2       25.6297211      140.54928870    0.00000000
                                                     2        7.1705822       63.57818350    0.00000000
                                                     2        1.3639538        7.07536140    0.00000000
   13         34            6
                                      F and up 
                                                     1      433.1931336      -28.00000000    0.00000000
                                                     2       83.8952157     -214.38417620    0.00000000
                                                     2       18.5839139      -65.69187820    0.00000000
                                                     2        5.3955286      -24.61539320    0.00000000
                                                     2        1.7474326       -2.44814970    0.00000000
                                      S - F
                                                     0      202.8986193        3.00000000    0.00000000
                                                     1       78.3820487       62.02953900    0.00000000
                                                     2       35.0753037      258.85559840    0.00000000
                                                     2       10.8769543      118.78001530    0.00000000
                                                     2        2.8005941       38.23552790    0.00000000
                                      P - F
                                                     0       44.3011875        5.00000000    0.00000000
                                                     1       20.3874206       24.79734580    0.00000000
                                                     2       23.1889948       63.75756400    0.00000000
                                                     2        7.9777664       79.05128310    0.00000000
                                                     2        2.2988146       22.95201830    0.00000000
                                      D - F
                                                     0       73.3628263        3.00000000    0.00000000
                                                     1       48.3835618       22.47059070    0.00000000
                                                     2       25.6297211      140.54928870    0.00000000
                                                     2        7.1705822       63.57818350    0.00000000
                                                     2        1.3639538        7.07536140    0.00000000
   14         34            6
                                      F and up 
                                                     1      433.1931336      -28.00000000    0.00000000
                                                     2       83.8952157     -214.38417620    0.00000000
                                                     2       18.5839139      -65.69187820    0.00000000
                                                     2        5.3955286      -24.61539320    0.00000000
                                                     2        1.7474326       -2.44814970    0.00000000
                                      S - F
                                                     0      202.8986193        3.00000000    0.00000000
                                                     1       78.3820487       62.02953900    0.00000000
                                                     2       35.0753037      258.85559840    0.00000000
                                                     2       10.8769543      118.78001530    0.00000000
                                                     2        2.8005941       38.23552790    0.00000000
                                      P - F
                                                     0       44.3011875        5.00000000    0.00000000
                                                     1       20.3874206       24.79734580    0.00000000
                                                     2       23.1889948       63.75756400    0.00000000
                                                     2        7.9777664       79.05128310    0.00000000
                                                     2        2.2988146       22.95201830    0.00000000
                                      D - F
                                                     0       73.3628263        3.00000000    0.00000000
                                                     1       48.3835618       22.47059070    0.00000000
                                                     2       25.6297211      140.54928870    0.00000000
                                                     2        7.1705822       63.57818350    0.00000000
                                                     2        1.3639538        7.07536140    0.00000000
   15         34            6
                                      F and up 
                                                     1      433.1931336      -28.00000000    0.00000000
                                                     2       83.8952157     -214.38417620    0.00000000
                                                     2       18.5839139      -65.69187820    0.00000000
                                                     2        5.3955286      -24.61539320    0.00000000
                                                     2        1.7474326       -2.44814970    0.00000000
                                      S - F
                                                     0      202.8986193        3.00000000    0.00000000
                                                     1       78.3820487       62.02953900    0.00000000
                                                     2       35.0753037      258.85559840    0.00000000
                                                     2       10.8769543      118.78001530    0.00000000
                                                     2        2.8005941       38.23552790    0.00000000
                                      P - F
                                                     0       44.3011875        5.00000000    0.00000000
                                                     1       20.3874206       24.79734580    0.00000000
                                                     2       23.1889948       63.75756400    0.00000000
                                                     2        7.9777664       79.05128310    0.00000000
                                                     2        2.2988146       22.95201830    0.00000000
                                      D - F
                                                     0       73.3628263        3.00000000    0.00000000
                                                     1       48.3835618       22.47059070    0.00000000
                                                     2       25.6297211      140.54928870    0.00000000
                                                     2        7.1705822       63.57818350    0.00000000
                                                     2        1.3639538        7.07536140    0.00000000
   16         34            6
                                      F and up 
                                                     1      433.1931336      -28.00000000    0.00000000
                                                     2       83.8952157     -214.38417620    0.00000000
                                                     2       18.5839139      -65.69187820    0.00000000
                                                     2        5.3955286      -24.61539320    0.00000000
                                                     2        1.7474326       -2.44814970    0.00000000
                                      S - F
                                                     0      202.8986193        3.00000000    0.00000000
                                                     1       78.3820487       62.02953900    0.00000000
                                                     2       35.0753037      258.85559840    0.00000000
                                                     2       10.8769543      118.78001530    0.00000000
                                                     2        2.8005941       38.23552790    0.00000000
                                      P - F
                                                     0       44.3011875        5.00000000    0.00000000
                                                     1       20.3874206       24.79734580    0.00000000
                                                     2       23.1889948       63.75756400    0.00000000
                                                     2        7.9777664       79.05128310    0.00000000
                                                     2        2.2988146       22.95201830    0.00000000
                                      D - F
                                                     0       73.3628263        3.00000000    0.00000000
                                                     1       48.3835618       22.47059070    0.00000000
                                                     2       25.6297211      140.54928870    0.00000000
                                                     2        7.1705822       63.57818350    0.00000000
                                                     2        1.3639538        7.07536140    0.00000000
   17         34            6
                                      F and up 
                                                     1      433.1931336      -28.00000000    0.00000000
                                                     2       83.8952157     -214.38417620    0.00000000
                                                     2       18.5839139      -65.69187820    0.00000000
                                                     2        5.3955286      -24.61539320    0.00000000
                                                     2        1.7474326       -2.44814970    0.00000000
                                      S - F
                                                     0      202.8986193        3.00000000    0.00000000
                                                     1       78.3820487       62.02953900    0.00000000
                                                     2       35.0753037      258.85559840    0.00000000
                                                     2       10.8769543      118.78001530    0.00000000
                                                     2        2.8005941       38.23552790    0.00000000
                                      P - F
                                                     0       44.3011875        5.00000000    0.00000000
                                                     1       20.3874206       24.79734580    0.00000000
                                                     2       23.1889948       63.75756400    0.00000000
                                                     2        7.9777664       79.05128310    0.00000000
                                                     2        2.2988146       22.95201830    0.00000000
                                      D - F
                                                     0       73.3628263        3.00000000    0.00000000
                                                     1       48.3835618       22.47059070    0.00000000
                                                     2       25.6297211      140.54928870    0.00000000
                                                     2        7.1705822       63.57818350    0.00000000
                                                     2        1.3639538        7.07536140    0.00000000
   18         34            6
                                      F and up 
                                                     1      433.1931336      -28.00000000    0.00000000
                                                     2       83.8952157     -214.38417620    0.00000000
                                                     2       18.5839139      -65.69187820    0.00000000
                                                     2        5.3955286      -24.61539320    0.00000000
                                                     2        1.7474326       -2.44814970    0.00000000
                                      S - F
                                                     0      202.8986193        3.00000000    0.00000000
                                                     1       78.3820487       62.02953900    0.00000000
                                                     2       35.0753037      258.85559840    0.00000000
                                                     2       10.8769543      118.78001530    0.00000000
                                                     2        2.8005941       38.23552790    0.00000000
                                      P - F
                                                     0       44.3011875        5.00000000    0.00000000
                                                     1       20.3874206       24.79734580    0.00000000
                                                     2       23.1889948       63.75756400    0.00000000
                                                     2        7.9777664       79.05128310    0.00000000
                                                     2        2.2988146       22.95201830    0.00000000
                                      D - F
                                                     0       73.3628263        3.00000000    0.00000000
                                                     1       48.3835618       22.47059070    0.00000000
                                                     2       25.6297211      140.54928870    0.00000000
                                                     2        7.1705822       63.57818350    0.00000000
                                                     2        1.3639538        7.07536140    0.00000000
   19         34            6
                                      F and up 
                                                     1      433.1931336      -28.00000000    0.00000000
                                                     2       83.8952157     -214.38417620    0.00000000
                                                     2       18.5839139      -65.69187820    0.00000000
                                                     2        5.3955286      -24.61539320    0.00000000
                                                     2        1.7474326       -2.44814970    0.00000000
                                      S - F
                                                     0      202.8986193        3.00000000    0.00000000
                                                     1       78.3820487       62.02953900    0.00000000
                                                     2       35.0753037      258.85559840    0.00000000
                                                     2       10.8769543      118.78001530    0.00000000
                                                     2        2.8005941       38.23552790    0.00000000
                                      P - F
                                                     0       44.3011875        5.00000000    0.00000000
                                                     1       20.3874206       24.79734580    0.00000000
                                                     2       23.1889948       63.75756400    0.00000000
                                                     2        7.9777664       79.05128310    0.00000000
                                                     2        2.2988146       22.95201830    0.00000000
                                      D - F
                                                     0       73.3628263        3.00000000    0.00000000
                                                     1       48.3835618       22.47059070    0.00000000
                                                     2       25.6297211      140.54928870    0.00000000
                                                     2        7.1705822       63.57818350    0.00000000
                                                     2        1.3639538        7.07536140    0.00000000
   20         34            6
                                      F and up 
                                                     1      433.1931336      -28.00000000    0.00000000
                                                     2       83.8952157     -214.38417620    0.00000000
                                                     2       18.5839139      -65.69187820    0.00000000
                                                     2        5.3955286      -24.61539320    0.00000000
                                                     2        1.7474326       -2.44814970    0.00000000
                                      S - F
                                                     0      202.8986193        3.00000000    0.00000000
                                                     1       78.3820487       62.02953900    0.00000000
                                                     2       35.0753037      258.85559840    0.00000000
                                                     2       10.8769543      118.78001530    0.00000000
                                                     2        2.8005941       38.23552790    0.00000000
                                      P - F
                                                     0       44.3011875        5.00000000    0.00000000
                                                     1       20.3874206       24.79734580    0.00000000
                                                     2       23.1889948       63.75756400    0.00000000
                                                     2        7.9777664       79.05128310    0.00000000
                                                     2        2.2988146       22.95201830    0.00000000
                                      D - F
                                                     0       73.3628263        3.00000000    0.00000000
                                                     1       48.3835618       22.47059070    0.00000000
                                                     2       25.6297211      140.54928870    0.00000000
                                                     2        7.1705822       63.57818350    0.00000000
                                                     2        1.3639538        7.07536140    0.00000000
   21         34            6
                                      F and up 
                                                     1      433.1931336      -28.00000000    0.00000000
                                                     2       83.8952157     -214.38417620    0.00000000
                                                     2       18.5839139      -65.69187820    0.00000000
                                                     2        5.3955286      -24.61539320    0.00000000
                                                     2        1.7474326       -2.44814970    0.00000000
                                      S - F
                                                     0      202.8986193        3.00000000    0.00000000
                                                     1       78.3820487       62.02953900    0.00000000
                                                     2       35.0753037      258.85559840    0.00000000
                                                     2       10.8769543      118.78001530    0.00000000
                                                     2        2.8005941       38.23552790    0.00000000
                                      P - F
                                                     0       44.3011875        5.00000000    0.00000000
                                                     1       20.3874206       24.79734580    0.00000000
                                                     2       23.1889948       63.75756400    0.00000000
                                                     2        7.9777664       79.05128310    0.00000000
                                                     2        2.2988146       22.95201830    0.00000000
                                      D - F
                                                     0       73.3628263        3.00000000    0.00000000
                                                     1       48.3835618       22.47059070    0.00000000
                                                     2       25.6297211      140.54928870    0.00000000
                                                     2        7.1705822       63.57818350    0.00000000
                                                     2        1.3639538        7.07536140    0.00000000
   22         34            6
                                      F and up 
                                                     1      433.1931336      -28.00000000    0.00000000
                                                     2       83.8952157     -214.38417620    0.00000000
                                                     2       18.5839139      -65.69187820    0.00000000
                                                     2        5.3955286      -24.61539320    0.00000000
                                                     2        1.7474326       -2.44814970    0.00000000
                                      S - F
                                                     0      202.8986193        3.00000000    0.00000000
                                                     1       78.3820487       62.02953900    0.00000000
                                                     2       35.0753037      258.85559840    0.00000000
                                                     2       10.8769543      118.78001530    0.00000000
                                                     2        2.8005941       38.23552790    0.00000000
                                      P - F
                                                     0       44.3011875        5.00000000    0.00000000
                                                     1       20.3874206       24.79734580    0.00000000
                                                     2       23.1889948       63.75756400    0.00000000
                                                     2        7.9777664       79.05128310    0.00000000
                                                     2        2.2988146       22.95201830    0.00000000
                                      D - F
                                                     0       73.3628263        3.00000000    0.00000000
                                                     1       48.3835618       22.47059070    0.00000000
                                                     2       25.6297211      140.54928870    0.00000000
                                                     2        7.1705822       63.57818350    0.00000000
                                                     2        1.3639538        7.07536140    0.00000000
   23         34            6
                                      F and up 
                                                     1      433.1931336      -28.00000000    0.00000000
                                                     2       83.8952157     -214.38417620    0.00000000
                                                     2       18.5839139      -65.69187820    0.00000000
                                                     2        5.3955286      -24.61539320    0.00000000
                                                     2        1.7474326       -2.44814970    0.00000000
                                      S - F
                                                     0      202.8986193        3.00000000    0.00000000
                                                     1       78.3820487       62.02953900    0.00000000
                                                     2       35.0753037      258.85559840    0.00000000
                                                     2       10.8769543      118.78001530    0.00000000
                                                     2        2.8005941       38.23552790    0.00000000
                                      P - F
                                                     0       44.3011875        5.00000000    0.00000000
                                                     1       20.3874206       24.79734580    0.00000000
                                                     2       23.1889948       63.75756400    0.00000000
                                                     2        7.9777664       79.05128310    0.00000000
                                                     2        2.2988146       22.95201830    0.00000000
                                      D - F
                                                     0       73.3628263        3.00000000    0.00000000
                                                     1       48.3835618       22.47059070    0.00000000
                                                     2       25.6297211      140.54928870    0.00000000
                                                     2        7.1705822       63.57818350    0.00000000
                                                     2        1.3639538        7.07536140    0.00000000
   24         34            6
                                      F and up 
                                                     1      433.1931336      -28.00000000    0.00000000
                                                     2       83.8952157     -214.38417620    0.00000000
                                                     2       18.5839139      -65.69187820    0.00000000
                                                     2        5.3955286      -24.61539320    0.00000000
                                                     2        1.7474326       -2.44814970    0.00000000
                                      S - F
                                                     0      202.8986193        3.00000000    0.00000000
                                                     1       78.3820487       62.02953900    0.00000000
                                                     2       35.0753037      258.85559840    0.00000000
                                                     2       10.8769543      118.78001530    0.00000000
                                                     2        2.8005941       38.23552790    0.00000000
                                      P - F
                                                     0       44.3011875        5.00000000    0.00000000
                                                     1       20.3874206       24.79734580    0.00000000
                                                     2       23.1889948       63.75756400    0.00000000
                                                     2        7.9777664       79.05128310    0.00000000
                                                     2        2.2988146       22.95201830    0.00000000
                                      D - F
                                                     0       73.3628263        3.00000000    0.00000000
                                                     1       48.3835618       22.47059070    0.00000000
                                                     2       25.6297211      140.54928870    0.00000000
                                                     2        7.1705822       63.57818350    0.00000000
                                                     2        1.3639538        7.07536140    0.00000000
   25         34            6
                                      F and up 
                                                     1      433.1931336      -28.00000000    0.00000000
                                                     2       83.8952157     -214.38417620    0.00000000
                                                     2       18.5839139      -65.69187820    0.00000000
                                                     2        5.3955286      -24.61539320    0.00000000
                                                     2        1.7474326       -2.44814970    0.00000000
                                      S - F
                                                     0      202.8986193        3.00000000    0.00000000
                                                     1       78.3820487       62.02953900    0.00000000
                                                     2       35.0753037      258.85559840    0.00000000
                                                     2       10.8769543      118.78001530    0.00000000
                                                     2        2.8005941       38.23552790    0.00000000
                                      P - F
                                                     0       44.3011875        5.00000000    0.00000000
                                                     1       20.3874206       24.79734580    0.00000000
                                                     2       23.1889948       63.75756400    0.00000000
                                                     2        7.9777664       79.05128310    0.00000000
                                                     2        2.2988146       22.95201830    0.00000000
                                      D - F
                                                     0       73.3628263        3.00000000    0.00000000
                                                     1       48.3835618       22.47059070    0.00000000
[...]
    30   Atom        0.000000      0.000000      0.000000
    31   Atom        0.000000      0.000000      0.000000
    32   Atom        0.000000      0.000000      0.000000
    33   Atom        0.000000      0.000000      0.000000
    34   Atom        0.000000      0.000000      0.000000
    35   Atom        0.000000      0.000000      0.000000
    36   Atom        0.000000      0.000000      0.000000
    37   Atom        0.000000      0.000000      0.000000
    38   Atom        0.000000      0.000000      0.000000
    39   Atom        0.000000      0.000000      0.000000
    40   Atom        0.000000      0.000000      0.000000
    41   Atom        0.000000      0.000000      0.000000
    42   Atom        0.000000      0.000000      0.000000
    43   Atom        0.000000      0.000000      0.000000
    44   Atom        0.000000      0.000000      0.000000
    45   Atom        0.000000      0.000000      0.000000
    46   Atom        0.000000      0.000000      0.000000
    47   Atom        0.000000      0.000000      0.000000
    48   Atom        0.000000      0.000000      0.000000
    49   Atom        0.000000      0.000000      0.000000
    50   Atom        0.000000      0.000000      0.000000
    51   Atom        0.000000      0.000000      0.000000
    52   Atom        0.000000      0.000000      0.000000
    53   Atom        0.000000      0.000000      0.000000
    54   Atom        0.000000      0.000000      0.000000
    55   Atom        0.000000      0.000000      0.000000
    56   Atom        0.000000      0.000000      0.000000
    57   Atom        0.000000      0.000000      0.000000
    58   Atom        0.000000      0.000000      0.000000
    59   Atom        0.000000      0.000000      0.000000
    60   Atom        0.000000      0.000000      0.000000
    61   Atom        0.000000      0.000000      0.000000
    62   Atom        0.000000      0.000000      0.000000
    63   Atom        0.000000      0.000000      0.000000
    64   Atom        0.000000      0.000000      0.000000
    65   Atom        0.000000      0.000000      0.000000
    66   Atom        0.000000      0.000000      0.000000
 --------------------------------------------------------
                        XY            XZ            YZ
 --------------------------------------------------------
     1   Atom        0.000000      0.000000      0.000000
     2   Atom        0.000000      0.000000      0.000000
     3   Atom        0.000000      0.000000      0.000000
     4   Atom        0.000000      0.000000      0.000000
     5   Atom        0.000000      0.000000      0.000000
     6   Atom        0.000000      0.000000      0.000000
     7   Atom        0.000000      0.000000      0.000000
     8   Atom        0.000000      0.000000      0.000000
     9   Atom        0.000000      0.000000      0.000000
    10   Atom        0.000000      0.000000      0.000000
    11   Atom        0.000000      0.000000      0.000000
    12   Atom        0.000000      0.000000      0.000000
    13   Atom        0.000000      0.000000      0.000000
    14   Atom        0.000000      0.000000      0.000000
    15   Atom        0.000000      0.000000      0.000000
    16   Atom        0.000000      0.000000      0.000000
    17   Atom        0.000000      0.000000      0.000000
    18   Atom        0.000000      0.000000      0.000000
    19   Atom        0.000000      0.000000      0.000000
    20   Atom        0.000000      0.000000      0.000000
    21   Atom        0.000000      0.000000      0.000000
    22   Atom        0.000000      0.000000      0.000000
    23   Atom        0.000000      0.000000      0.000000
    24   Atom        0.000000      0.000000      0.000000
    25   Atom        0.000000      0.000000      0.000000
    26   Atom        0.000000      0.000000      0.000000
    27   Atom        0.000000      0.000000      0.000000
    28   Atom        0.000000      0.000000      0.000000
    29   Atom        0.000000      0.000000      0.000000
    30   Atom        0.000000      0.000000      0.000000
    31   Atom        0.000000      0.000000      0.000000
    32   Atom        0.000000      0.000000      0.000000
    33   Atom        0.000000      0.000000      0.000000
    34   Atom        0.000000      0.000000      0.000000
    35   Atom        0.000000      0.000000      0.000000
    36   Atom        0.000000      0.000000      0.000000
    37   Atom        0.000000      0.000000      0.000000
    38   Atom        0.000000      0.000000      0.000000
    39   Atom        0.000000      0.000000      0.000000
    40   Atom        0.000000      0.000000      0.000000
    41   Atom        0.000000      0.000000      0.000000
    42   Atom        0.000000      0.000000      0.000000
    43   Atom        0.000000      0.000000      0.000000
    44   Atom        0.000000      0.000000      0.000000
    45   Atom        0.000000      0.000000      0.000000
    46   Atom        0.000000      0.000000      0.000000
    47   Atom        0.000000      0.000000      0.000000
    48   Atom        0.000000      0.000000      0.000000
    49   Atom        0.000000      0.000000      0.000000
    50   Atom        0.000000      0.000000      0.000000
    51   Atom        0.000000      0.000000      0.000000
    52   Atom        0.000000      0.000000      0.000000
    53   Atom        0.000000      0.000000      0.000000
    54   Atom        0.000000      0.000000      0.000000
    55   Atom        0.000000      0.000000      0.000000
    56   Atom        0.000000      0.000000      0.000000
    57   Atom        0.000000      0.000000      0.000000
    58   Atom        0.000000      0.000000      0.000000
    59   Atom        0.000000      0.000000      0.000000
    60   Atom        0.000000      0.000000      0.000000
    61   Atom        0.000000      0.000000      0.000000
    62   Atom        0.000000      0.000000      0.000000
    63   Atom        0.000000      0.000000      0.000000
    64   Atom        0.000000      0.000000      0.000000
    65   Atom        0.000000      0.000000      0.000000
    66   Atom        0.000000      0.000000      0.000000
 --------------------------------------------------------


 ---------------------------------------------------------------------------------
              Anisotropic Spin Dipole Couplings in Principal Axis System
 ---------------------------------------------------------------------------------

       Atom             a.u.   MegaHertz   Gauss  10(-4) cm-1        Axes

              Baa     0.0000    -0.000    -0.000    -0.000  1.0000  0.0000  0.0000
    29 Cd(111 Bbb     0.0000    -0.000    -0.000    -0.000 -0.0000  1.0000  0.0000
              Bcc     0.0000    -0.000    -0.000    -0.000  0.0000  0.0000  1.0000
 
              Baa     0.0000    -0.000    -0.000    -0.000  1.0000  0.0000  0.0000
    30 Cd(111 Bbb     0.0000    -0.000    -0.000    -0.000 -0.0000  1.0000  0.0000
              Bcc     0.0000    -0.000    -0.000    -0.000  0.0000  0.0000  1.0000
 
              Baa     0.0000    -0.000    -0.000    -0.000  1.0000  0.0000  0.0000
    31 Cd(111 Bbb     0.0000    -0.000    -0.000    -0.000 -0.0000  1.0000  0.0000
              Bcc     0.0000    -0.000    -0.000    -0.000  0.0000  0.0000  1.0000
 
              Baa     0.0000    -0.000    -0.000    -0.000  1.0000  0.0000  0.0000
    32 Cd(111 Bbb     0.0000    -0.000    -0.000    -0.000 -0.0000  1.0000  0.0000
              Bcc     0.0000    -0.000    -0.000    -0.000  0.0000  0.0000  1.0000
 
              Baa     0.0000    -0.000    -0.000    -0.000  1.0000  0.0000  0.0000
    33 Cd(111 Bbb     0.0000    -0.000    -0.000    -0.000 -0.0000  1.0000  0.0000
              Bcc     0.0000    -0.000    -0.000    -0.000  0.0000  0.0000  1.0000
 
              Baa     0.0000    -0.000    -0.000    -0.000  1.0000  0.0000  0.0000
    34 Cd(111 Bbb     0.0000    -0.000    -0.000    -0.000 -0.0000  1.0000  0.0000
              Bcc     0.0000    -0.000    -0.000    -0.000  0.0000  0.0000  1.0000
 
              Baa     0.0000    -0.000    -0.000    -0.000  1.0000  0.0000  0.0000
    35 Cd(111 Bbb     0.0000    -0.000    -0.000    -0.000 -0.0000  1.0000  0.0000
              Bcc     0.0000    -0.000    -0.000    -0.000  0.0000  0.0000  1.0000
 
              Baa     0.0000    -0.000    -0.000    -0.000  1.0000  0.0000  0.0000
    36 Cd(111 Bbb     0.0000    -0.000    -0.000    -0.000 -0.0000  1.0000  0.0000
              Bcc     0.0000    -0.000    -0.000    -0.000  0.0000  0.0000  1.0000
 
              Baa     0.0000    -0.000    -0.000    -0.000  1.0000  0.0000  0.0000
    37 Cd(111 Bbb     0.0000    -0.000    -0.000    -0.000 -0.0000  1.0000  0.0000
              Bcc     0.0000    -0.000    -0.000    -0.000  0.0000  0.0000  1.0000
 
              Baa     0.0000    -0.000    -0.000    -0.000  1.0000  0.0000  0.0000
    38 Cd(111 Bbb     0.0000    -0.000    -0.000    -0.000 -0.0000  1.0000  0.0000
              Bcc     0.0000    -0.000    -0.000    -0.000  0.0000  0.0000  1.0000
 
              Baa     0.0000    -0.000    -0.000    -0.000  1.0000  0.0000  0.0000
    39 Cd(111 Bbb     0.0000    -0.000    -0.000    -0.000 -0.0000  1.0000  0.0000
              Bcc     0.0000    -0.000    -0.000    -0.000  0.0000  0.0000  1.0000
 
              Baa     0.0000    -0.000    -0.000    -0.000  1.0000  0.0000  0.0000
    40 Cd(111 Bbb     0.0000    -0.000    -0.000    -0.000 -0.0000  1.0000  0.0000
              Bcc     0.0000    -0.000    -0.000    -0.000  0.0000  0.0000  1.0000
 
              Baa     0.0000    -0.000    -0.000    -0.000  1.0000  0.0000  0.0000
    41 Cd(111 Bbb     0.0000    -0.000    -0.000    -0.000 -0.0000  1.0000  0.0000
              Bcc     0.0000    -0.000    -0.000    -0.000  0.0000  0.0000  1.0000
 
              Baa     0.0000    -0.000    -0.000    -0.000  1.0000  0.0000  0.0000
    42 Cd(111 Bbb     0.0000    -0.000    -0.000    -0.000 -0.0000  1.0000  0.0000
              Bcc     0.0000    -0.000    -0.000    -0.000  0.0000  0.0000  1.0000
 
              Baa     0.0000    -0.000    -0.000    -0.000  1.0000  0.0000  0.0000
    43 Cd(111 Bbb     0.0000    -0.000    -0.000    -0.000 -0.0000  1.0000  0.0000
              Bcc     0.0000    -0.000    -0.000    -0.000  0.0000  0.0000  1.0000
 
              Baa     0.0000    -0.000    -0.000    -0.000  1.0000  0.0000  0.0000
    44 Cd(111 Bbb     0.0000    -0.000    -0.000    -0.000 -0.0000  1.0000  0.0000
              Bcc     0.0000    -0.000    -0.000    -0.000  0.0000  0.0000  1.0000
 
              Baa     0.0000    -0.000    -0.000    -0.000  1.0000  0.0000  0.0000
    45 Cd(111 Bbb     0.0000    -0.000    -0.000    -0.000 -0.0000  1.0000  0.0000
              Bcc     0.0000    -0.000    -0.000    -0.000  0.0000  0.0000  1.0000
 
              Baa     0.0000     0.000     0.000     0.000  1.0000  0.0000  0.0000
    46 H(1)   Bbb     0.0000     0.000     0.000     0.000 -0.0000  1.0000  0.0000
              Bcc     0.0000     0.000     0.000     0.000  0.0000  0.0000  1.0000
 
              Baa     0.0000     0.000     0.000     0.000  1.0000  0.0000  0.0000
    47 H(1)   Bbb     0.0000     0.000     0.000     0.000 -0.0000  1.0000  0.0000
              Bcc     0.0000     0.000     0.000     0.000  0.0000  0.0000  1.0000
 
              Baa     0.0000     0.000     0.000     0.000  1.0000  0.0000  0.0000
    48 H(1)   Bbb     0.0000     0.000     0.000     0.000 -0.0000  1.0000  0.0000
              Bcc     0.0000     0.000     0.000     0.000  0.0000  0.0000  1.0000
 
              Baa     0.0000     0.000     0.000     0.000  1.0000  0.0000  0.0000
    49 H(1)   Bbb     0.0000     0.000     0.000     0.000 -0.0000  1.0000  0.0000
              Bcc     0.0000     0.000     0.000     0.000  0.0000  0.0000  1.0000
 
              Baa     0.0000     0.000     0.000     0.000  1.0000  0.0000  0.0000
    50 H(1)   Bbb     0.0000     0.000     0.000     0.000 -0.0000  1.0000  0.0000
              Bcc     0.0000     0.000     0.000     0.000  0.0000  0.0000  1.0000
 
              Baa     0.0000     0.000     0.000     0.000  1.0000  0.0000  0.0000
    51 H(1)   Bbb     0.0000     0.000     0.000     0.000 -0.0000  1.0000  0.0000
              Bcc     0.0000     0.000     0.000     0.000  0.0000  0.0000  1.0000
 
              Baa     0.0000     0.000     0.000     0.000  1.0000  0.0000  0.0000
    52 H(1)   Bbb     0.0000     0.000     0.000     0.000 -0.0000  1.0000  0.0000
              Bcc     0.0000     0.000     0.000     0.000  0.0000  0.0000  1.0000
 
              Baa     0.0000     0.000     0.000     0.000  1.0000  0.0000  0.0000
    53 H(1)   Bbb     0.0000     0.000     0.000     0.000 -0.0000  1.0000  0.0000
              Bcc     0.0000     0.000     0.000     0.000  0.0000  0.0000  1.0000
 
              Baa     0.0000     0.000     0.000     0.000  1.0000  0.0000  0.0000
    54 H(1)   Bbb     0.0000     0.000     0.000     0.000 -0.0000  1.0000  0.0000
              Bcc     0.0000     0.000     0.000     0.000  0.0000  0.0000  1.0000
 
              Baa     0.0000     0.000     0.000     0.000  1.0000  0.0000  0.0000
    55 H(1)   Bbb     0.0000     0.000     0.000     0.000 -0.0000  1.0000  0.0000
              Bcc     0.0000     0.000     0.000     0.000  0.0000  0.0000  1.0000
 
              Baa     0.0000     0.000     0.000     0.000  1.0000  0.0000  0.0000
    56 H(1)   Bbb     0.0000     0.000     0.000     0.000 -0.0000  1.0000  0.0000
              Bcc     0.0000     0.000     0.000     0.000  0.0000  0.0000  1.0000
 
              Baa     0.0000     0.000     0.000     0.000  1.0000  0.0000  0.0000
    57 H(1)   Bbb     0.0000     0.000     0.000     0.000 -0.0000  1.0000  0.0000
              Bcc     0.0000     0.000     0.000     0.000  0.0000  0.0000  1.0000
 
              Baa     0.0000     0.000     0.000     0.000  1.0000  0.0000  0.0000
    58 H(1)   Bbb     0.0000     0.000     0.000     0.000 -0.0000  1.0000  0.0000
              Bcc     0.0000     0.000     0.000     0.000  0.0000  0.0000  1.0000
 
              Baa     0.0000     0.000     0.000     0.000  1.0000  0.0000  0.0000
    59 H(1)   Bbb     0.0000     0.000     0.000     0.000 -0.0000  1.0000  0.0000
              Bcc     0.0000     0.000     0.000     0.000  0.0000  0.0000  1.0000
 
              Baa     0.0000     0.000     0.000     0.000  1.0000  0.0000  0.0000
    60 H(1)   Bbb     0.0000     0.000     0.000     0.000 -0.0000  1.0000  0.0000
              Bcc     0.0000     0.000     0.000     0.000  0.0000  0.0000  1.0000
 
              Baa     0.0000     0.000     0.000     0.000  1.0000  0.0000  0.0000
    61 H(1)   Bbb     0.0000     0.000     0.000     0.000 -0.0000  1.0000  0.0000
              Bcc     0.0000     0.000     0.000     0.000  0.0000  0.0000  1.0000
 
              Baa     0.0000     0.000     0.000     0.000  1.0000  0.0000  0.0000
    62 H(1)   Bbb     0.0000     0.000     0.000     0.000 -0.0000  1.0000  0.0000
              Bcc     0.0000     0.000     0.000     0.000  0.0000  0.0000  1.0000
 
              Baa     0.0000     0.000     0.000     0.000  1.0000  0.0000  0.0000
    63 H(1)   Bbb     0.0000     0.000     0.000     0.000 -0.0000  1.0000  0.0000
              Bcc     0.0000     0.000     0.000     0.000  0.0000  0.0000  1.0000
 
              Baa     0.0000     0.000     0.000     0.000  1.0000  0.0000  0.0000
    64 H(1)   Bbb     0.0000     0.000     0.000     0.000 -0.0000  1.0000  0.0000
              Bcc     0.0000     0.000     0.000     0.000  0.0000  0.0000  1.0000
 
              Baa     0.0000     0.000     0.000     0.000  1.0000  0.0000  0.0000
    65 H(1)   Bbb     0.0000     0.000     0.000     0.000 -0.0000  1.0000  0.0000
              Bcc     0.0000     0.000     0.000     0.000  0.0000  0.0000  1.0000
 
              Baa     0.0000     0.000     0.000     0.000  1.0000  0.0000  0.0000
    66 H(1)   Bbb     0.0000     0.000     0.000     0.000 -0.0000  1.0000  0.0000
              Bcc     0.0000     0.000     0.000     0.000  0.0000  0.0000  1.0000
 

 ---------------------------------------------------------------------------------

 No NMR shielding tensors so no spin-rotation constants.
 Leave Link  601 at Tue Mar 28 13:38:13 2023, MaxMem=  2364354560 cpu:               3.2 elap:               0.4
 (Enter /mmfs1/apps/gaussian16/c01-avx2/g16/l9999.exe)
 Unable to Open any file for archive entry.
 1\1\GINC-CMP0003\SP\UB3LYP\Gen\Cd17H21Se28(1-)\OMOLOLA.ENIODUNMO\28-Ma
 r-2023\0\\#p ub3lyp/gen pseudo=cards pop=(orbitals=250)\\Se28Cd17H22\\
 -1,1\Se,0,15.25452498,16.98045588,16.33209478\Se,0,20.65995712,13.8341
 2702,14.40675541\Se,0,18.01236657,10.52382257,13.28601263\Se,0,14.2628
 86,18.70271631,12.46741179\Se,0,16.28535446,15.35536479,20.47829439\Se
 ,0,10.22369658,9.52060442,15.2948597\Se,0,8.81662319,13.33623295,17.47
 585177\Se,0,8.73165768,13.10233243,12.68930315\Se,0,17.71212059,20.967
 6692,16.82642536\Se,0,13.44927618,10.560414,12.03951696\Se,0,12.009058
 28,15.28594412,10.71933078\Se,0,10.64531491,16.94230092,14.97656684\Se
 ,0,11.93291788,15.80154084,19.40631412\Se,0,13.20789204,11.7275105,19.
 45156829\Se,0,14.54519136,8.99841281,16.10513397\Se,0,18.83400343,8.75
 763859,17.37618125\Se,0,17.37776045,11.16390698,21.19867074\Se,0,21.11
 339868,12.57101887,18.65666901\Se,0,15.81350136,16.45060495,8.76634157
 \Se,0,16.74678803,11.75845159,9.15694615\Se,0,19.96180377,14.98578789,
 10.21007387\Se,0,14.42530994,19.52630459,19.97640528\Se,0,12.88954864,
 20.81729837,16.08138512\Se,0,18.64977095,17.98895943,13.40231291\Se,0,
 19.41972425,16.73185655,17.75708818\Se,0,12.69584008,13.39075922,15.21
 001033\Se,0,17.00955091,12.8084924,17.00655462\Se,0,16.26264858,14.407
 80614,12.6463773\Cd,0,9.00780685,12.05288923,15.02820684\Cd,0,15.91229
 917,11.74825441,11.89139662\Cd,0,15.20711065,14.40432559,15.37510675\C
 d,0,10.67719526,14.82084559,13.21199139\Cd,0,15.24048675,20.64777322,1
 7.53581545\Cd,0,19.00013537,10.91482676,19.05994828\Cd,0,17.40926872,1
 4.38954915,9.47685417\Cd,0,18.9292565,15.34287475,12.85891387\Cd,0,17.
 74846355,18.4300677,16.11541521\Cd,0,19.46918195,14.15211258,16.913747
 96\Cd,0,10.99046165,15.06459939,16.90722329\Cd,0,12.68825732,10.708140
 6,14.79722311\Cd,0,14.49034263,16.21899496,11.32761317\Cd,0,13.0334303
 4,18.19282965,14.99545215\Cd,0,14.44495016,16.89913808,19.01709534\Cd,
 0,15.6311461,12.81837169,19.56158822\Cd,0,16.95703737,10.28513596,15.8
 6059504\H,0,15.81982997,19.47280833,20.52245514\H,0,13.55423885,21.455
 55565,14.89926468\H,0,21.72258856,11.74192366,17.56589389\H,0,17.79246
 754,8.02326754,18.16414788\H,0,10.42136352,9.4799168,16.78090788\H,0,2
 0.41038959,13.56943585,10.40804264\H,0,15.38775077,11.99509175,8.57232
 66\H,0,16.62441266,9.89242069,20.94681544\H,0,16.80836732,17.49736994,
 9.1692129\H,0,20.07860384,12.4954127,14.05934254\H,0,9.62774218,12.378
 44871,18.29652972\H,0,12.99956575,19.01863808,11.72277806\H,0,20.74954
 684,17.11418372,17.17946595\H,0,14.74872871,8.08506007,14.93124036\H,0
 ,13.96225105,9.1531964,11.95560015\H,0,12.3865539,14.39961209,19.73768
 128\H,0,20.09829099,18.30530003,13.61903273\H,0,15.45655977,15.2722624
 5,21.72456337\H,0,17.85138417,9.10510413,12.83535358\H,0,12.3123652,13
 .84023632,10.47619681\H,0,13.0212764,12.12795214,18.01155921\\Version=
 ES64L-G16RevC.01\State=1-A\HF=-1089.7628972\S2=0.\S2-1=0.\S2A=0.\RMSD=
 5.932e-09\Dipole=4.4779644,-4.0236471,-1.1916415\Quadrupole=-28.359062
 6,9.1371338,19.2219288,-19.4183264,-17.5066914,-10.1339042\PG=C01 [X(C
 d17H21Se28)]\\@
 The archive entry for this job was punched.


 "MATHEMATICS IS THE ART OF GIVING THE SAME NAME
 TO DIFFERENT THINGS."
                    - H. POINCARE
 Job cpu time:       0 days  0 hours 43 minutes 40.6 seconds.
 Elapsed time:       0 days  0 hours  4 minutes 23.3 seconds.
 File lengths (MBytes):  RWF=    416 Int=      0 D2E=      0 Chk=     32 Scr=     16
 Normal termination of Gaussian 16 at Tue Mar 28 13:38:13 2023.
