 Entering Gaussian System, Link 0=g16
 Initial command:
 /mmfs1/apps/gaussian16/c02-avx2/g16/l1.exe "/mmfs1/scratch/victoria.oas/gaussian_jobs/g16.349210.bright03/Gau-3172089.inp" -scrdir="/mmfs1/scratch/victoria.oas/gaussian_jobs/g16.349210.bright03/"
 Entering Link 1 = /mmfs1/apps/gaussian16/c02-avx2/g16/l1.exe PID=   3172090.
  
 Copyright (c) 1988-2021, Gaussian, Inc.  All Rights Reserved.
  
 This is part of the Gaussian(R) 16 program.  It is based on
 the Gaussian(R) 09 system (copyright 2009, Gaussian, Inc.),
 the Gaussian(R) 03 system (copyright 2003, Gaussian, Inc.),
 the Gaussian(R) 98 system (copyright 1998, Gaussian, Inc.),
 the Gaussian(R) 94 system (copyright 1995, Gaussian, Inc.),
 the Gaussian 92(TM) system (copyright 1992, Gaussian, Inc.),
 the Gaussian 90(TM) system (copyright 1990, Gaussian, Inc.),
 the Gaussian 88(TM) system (copyright 1988, Gaussian, Inc.),
 the Gaussian 86(TM) system (copyright 1986, Carnegie Mellon
 University), and the Gaussian 82(TM) system (copyright 1983,
 Carnegie Mellon University). Gaussian is a federally registered
 trademark of Gaussian, Inc.
  
 This software contains proprietary and confidential information,
 including trade secrets, belonging to Gaussian, Inc.
  
 This software is provided under written license and may be
 used, copied, transmitted, or stored only in accord with that
 written license.
  
 The following legend is applicable only to US Government
 contracts under FAR:
  
                    RESTRICTED RIGHTS LEGEND
  
 Use, reproduction and disclosure by the US Government is
 subject to restrictions as set forth in subparagraphs (a)
 and (c) of the Commercial Computer Software - Restricted
 Rights clause in FAR 52.227-19.
  
 Gaussian, Inc.
 340 Quinnipiac St., Bldg. 40, Wallingford CT 06492
  
  
 ---------------------------------------------------------------
 Warning -- This program may not be used in any manner that
 competes with the business of Gaussian, Inc. or will provide
 assistance to any competitor of Gaussian, Inc.  The licensee
 of this program is prohibited from giving any competitor of
 Gaussian, Inc. access to this program.  By using this program,
 the user acknowledges that Gaussian, Inc. is engaged in the
 business of creating and licensing software in the field of
 computational chemistry and represents and warrants to the
 licensee that it is not a competitor of Gaussian, Inc. and that
 it will not use this program in any manner prohibited above.
 ---------------------------------------------------------------
  

 Cite this work as:
 Gaussian 16, Revision C.02,
 M. J. Frisch, G. W. Trucks, H. B. Schlegel, G. E. Scuseria, 
 M. A. Robb, J. R. Cheeseman, G. Scalmani, V. Barone, 
 G. A. Petersson, H. Nakatsuji, X. Li, M. Caricato, A. V. Marenich, 
 J. Bloino, B. G. Janesko, R. Gomperts, B. Mennucci, H. P. Hratchian, 
 J. V. Ortiz, A. F. Izmaylov, J. L. Sonnenberg, D. Williams-Young, 
 F. Ding, F. Lipparini, F. Egidi, J. Goings, B. Peng, A. Petrone, 
 T. Henderson, D. Ranasinghe, V. G. Zakrzewski, J. Gao, N. Rega, 
 G. Zheng, W. Liang, M. Hada, M. Ehara, K. Toyota, R. Fukuda, 
 J. Hasegawa, M. Ishida, T. Nakajima, Y. Honda, O. Kitao, H. Nakai, 
 T. Vreven, K. Throssell, J. A. Montgomery, Jr., J. E. Peralta, 
 F. Ogliaro, M. J. Bearpark, J. J. Heyd, E. N. Brothers, K. N. Kudin, 
 V. N. Staroverov, T. A. Keith, R. Kobayashi, J. Normand, 
 K. Raghavachari, A. P. Rendell, J. C. Burant, S. S. Iyengar, 
 J. Tomasi, M. Cossi, J. M. Millam, M. Klene, C. Adamo, R. Cammi, 
 J. W. Ochterski, R. L. Martin, K. Morokuma, O. Farkas, 
 J. B. Foresman, and D. J. Fox, Gaussian, Inc., Wallingford CT, 2019.
 
 ******************************************
 Gaussian 16:  ES64L-G16RevC.02  7-Dec-2021
                27-Mar-2023 
 ******************************************
 %mem=5gb
 %nprocshared=2
 Will use up to    2 processors via shared memory.
 %chk=diphenyl.chk
 ------------------------------------------
 # pop=(orbitals=20) nosymm upbe1pbe/6-31g*
 sdfa  asfd
 ------------------------------------------
 1/38=1,172=1/1;
 2/12=2,15=1,17=6,18=5,40=1/2;
 3/5=1,6=6,7=1,11=2,25=1,30=1,74=-13,116=2/1,2,3;
 4//1;
 5/5=2,38=5/2;
 6/7=2,8=2,9=2,10=2,28=1,96=20/1;
 99/5=1,9=1/99;
 -------------------
 Title Card Required
 -------------------
 Symbolic Z-matrix:
 Charge =  0 Multiplicity = 1
 C(Fragment=1)         2.26402  -2.4145    0. 
 C(Fragment=1)         3.65918  -2.4145    0. 
 C(Fragment=1)         4.35672  -1.20675   0. 
 C(Fragment=1)         3.65907   0.00176  -0.0012 
 C(Fragment=1)         2.26424   0.00168  -0.00168 
 C(Fragment=1)         1.56664  -1.20652  -0.00068 
 H(Fragment=1)         1.71426  -3.36682   0.00045 
 H(Fragment=1)         4.20869  -3.36701   0.00132 
 H(Fragment=1)         5.4564   -1.20667   0.00063 
 H(Fragment=1)         1.71412   0.95396  -0.00263 
 H(Fragment=1)         0.46704  -1.20634  -0.00086 
 C(Fragment=2)         4.42957   1.33515  -0.00128 
 C(Fragment=2)         4.77902   1.93874  -1.2096 
 C(Fragment=2)         4.77799   1.93947   1.20659 
 C(Fragment=2)         5.47733   3.14605  -1.20995 
 H(Fragment=2)         4.50486   1.46166  -2.16168 
 C(Fragment=2)         5.47565   3.14764   1.20641 
 H(Fragment=2)         4.50249   1.46397   2.15902 
 C(Fragment=2)         5.82547   3.75092  -0.00158 
 H(Fragment=2)         5.75335   3.62155  -2.16232 
 H(Fragment=2)         5.74987   3.6241    2.15891 
 H(Fragment=2)         6.376     4.70286  -0.00211 
 
                          Input orientation:                          
 ---------------------------------------------------------------------
 Center     Atomic      Atomic             Coordinates (Angstroms)
 Number     Number       Type             X           Y           Z
 ---------------------------------------------------------------------
      1          6           0        2.264022   -2.414501    0.000000
      2          6           0        3.659182   -2.414501    0.000000
      3          6           0        4.356720   -1.206750    0.000000
      4          6           0        3.659066    0.001759   -0.001199
      5          6           0        2.264241    0.001681   -0.001678
      6          6           0        1.566640   -1.206525   -0.000682
      7          1           0        1.714263   -3.366818    0.000450
      8          1           0        4.208690   -3.367014    0.001315
      9          1           0        5.456400   -1.206670    0.000634
     10          1           0        1.714119    0.953962   -0.002631
     11          1           0        0.467036   -1.206342   -0.000862
     12          6           0        4.429570    1.335147   -0.001282
     13          6           0        4.779022    1.938744   -1.209597
     14          6           0        4.777992    1.939471    1.206586
     15          6           0        5.477329    3.146051   -1.209949
     16          1           0        4.504859    1.461664   -2.161685
     17          6           0        5.475649    3.147645    1.206406
     18          1           0        4.502492    1.463970    2.159018
     19          6           0        5.825466    3.750915   -0.001580
     20          1           0        5.753354    3.621555   -2.162316
     21          1           0        5.749871    3.624104    2.158910
     22          1           0        6.376005    4.702863   -0.002108
 ---------------------------------------------------------------------
                    Distance matrix (angstroms):
                    1          2          3          4          5
     1  C    0.000000
     2  C    1.395160   0.000000
     3  C    2.416205   1.394712   0.000000
     4  C    2.790065   2.416260   1.395427   0.000000
     5  C    2.416183   2.789946   2.416356   1.394825   0.000000
     6  C    1.394829   2.416183   2.790080   2.416236   1.395138
     7  H    1.099610   2.165553   3.412986   3.889675   3.413102
     8  H    2.165414   1.099655   2.165330   3.413316   3.889601
     9  H    3.413229   2.165375   1.099680   2.165806   3.413209
    10  H    3.413055   3.889707   3.413506   2.165528   1.099761
    11  H    2.165365   3.413128   3.889684   3.412999   2.165471
    12  C    4.330065   3.827971   2.542941   1.540000   2.542987
    13  C    5.170986   4.654880   3.396409   2.542919   3.396381
    14  C    5.170393   4.654530   3.395883   2.542728   3.396156
    15  C    6.535216   5.974058   4.654741   3.828019   4.655203
    16  H    4.971809   4.518042   3.437333   2.741238   3.437666
    17  C    6.535092   5.974314   4.654908   3.828169   4.655072
    18  H    4.971382   4.518303   3.437346   2.741526   3.437538
    19  C    7.120129   6.534917   5.170654   4.330065   5.170985
    20  H    7.299659   6.745008   5.471629   4.707376   5.472271
    21  H    7.299094   6.745118   5.471646   4.707326   5.471718
    22  H    8.219809   7.618267   6.245081   5.429745   6.245615
                    6          7          8          9         10
     6  C    0.000000
     7  H    2.165331   0.000000
     8  H    3.412938   2.494427   0.000000
     9  H    3.889760   4.320860   2.494768   0.000000
    10  H    2.165516   4.320781   4.989362   4.321228   0.000000
    11  H    1.099604   2.494641   4.320704   4.989364   2.494420
    12  C    3.828376   5.429675   4.707347   2.741390   2.742076
    13  C    4.655490   6.245474   5.471988   3.437605   3.438051
    14  C    4.654843   6.244830   5.471340   3.436969   3.438132
    15  C    5.975009   7.618608   6.745118   4.517978   4.519360
    16  H    4.519104   5.981346   5.299285   3.563854   3.564759
    17  C    5.974630   7.618437   6.745236   4.518220   4.519195
    18  H    4.518304   5.980815   5.299095   3.563829   3.564809
    19  C    6.535581   8.219740   7.299239   4.971304   4.972537
    20  H    6.746228   8.356385   7.477124   5.298895   5.300539
    21  H    6.745238   8.355720   7.477043   5.299118   5.299925
    22  H    7.619111   9.319420   8.355846   5.980656   5.982260
                   11         12         13         14         15
    11  H    0.000000
    12  C    4.707530   0.000000
    13  C    5.472278   1.395160   0.000000
    14  C    5.471600   1.394829   2.416183   0.000000
    15  C    6.745980   2.416205   1.394712   2.790080   0.000000
    16  H    5.300135   2.165414   1.099655   3.412938   2.165330
    17  C    6.745436   2.416183   2.789946   1.395138   2.416356
    18  H    5.299109   2.165365   3.413128   1.099604   3.889684
    19  C    7.299806   2.790065   2.416260   2.416236   1.395427
    20  H    7.478344   3.413229   2.165375   3.889760   1.099680
    21  H    7.477043   3.413055   3.889707   2.165516   3.413506
    22  H    8.356710   3.889745   3.413024   3.413344   2.165678
                   16         17         18         19         20
    16  H    0.000000
    17  C    3.889601   0.000000
    18  H    4.320704   2.165471   0.000000
    19  C    3.413316   1.394825   3.412999   0.000000
    20  H    2.494768   3.413209   4.989364   2.165806   0.000000
    21  H    4.989362   1.099761   2.494420   2.165528   4.321228
    22  H    4.320917   2.165606   4.320988   1.099680   2.494678
                   21         22
    21  H    0.000000
    22  H    2.495147   0.000000
 Symmetry turned off by external request.
 Stoichiometry    C12H10
 Framework group  C1[X(C12H10)]
 Deg. of freedom    60
 Full point group                 C1      NOp   1
 Rotational constants (GHZ):           2.8431328           0.5063659           0.5063445
 Standard basis: 6-31G(d) (6D, 7F)
   200 basis functions,   376 primitive gaussians,   200 cartesian basis functions
    41 alpha electrons       41 beta electrons
       nuclear repulsion energy       596.5893533076 Hartrees.
 NAtoms=   22 NActive=   22 NUniq=   22 SFac= 1.00D+00 NAtFMM=   60 NAOKFM=F Big=F
 Integral buffers will be    131072 words long.
 Raffenetti 2 integral format.
 Two-electron integral symmetry is turned off.
 One-electron integrals computed using PRISM.
 NBasis=   200 RedAO= T EigKep=  4.62D-04  NBF=   200
 NBsUse=   200 1.00D-06 EigRej= -1.00D+00 NBFU=   200
 ExpMin= 1.61D-01 ExpMax= 3.05D+03 ExpMxC= 4.57D+02 IAcc=3 IRadAn=         5 AccDes= 0.00D+00
 Harris functional with IExCor= 1009 and IRadAn=       5 diagonalized for initial guess.
 HarFok:  IExCor= 1009 AccDes= 0.00D+00 IRadAn=         5 IDoV= 1 UseB2=F ITyADJ=14
 ICtDFT=  3500011 ScaDFX=  1.000000  1.000000  1.000000  1.000000
 FoFCou: FMM=F IPFlag=           0 FMFlag=      100000 FMFlg1=           0
         NFxFlg=           0 DoJE=T BraDBF=F KetDBF=T FulRan=T
         wScrn=  0.000000 ICntrl=       500 IOpCl=  0 I1Cent=   200000004 NGrid=           0
         NMat0=    1 NMatS0=      1 NMatT0=    0 NMatD0=    1 NMtDS0=    0 NMtDT0=    0
 Symmetry not used in FoFCou.
 Initial guess <Sx>= 0.0000 <Sy>= 0.0000 <Sz>= 0.0000 <S**2>= 0.0000 S= 0.0000
 Keep R1 and R2 ints in memory in canonical form, NReq=408091702.
 Requested convergence on RMS density matrix=1.00D-08 within 128 cycles.
 Requested convergence on MAX density matrix=1.00D-06.
 Requested convergence on             energy=1.00D-06.
 No special actions if energy rises.
 Integral accuracy reduced to 1.0D-05 until final iterations.
 Initial convergence to 1.0D-05 achieved.  Increase integral accuracy.
 SCF Done:  E(UPBE1PBE) =  -462.743541907     A.U. after   12 cycles
            NFock= 12  Conv=0.63D-08     -V/T= 2.0096
 <Sx>= 0.0000 <Sy>= 0.0000 <Sz>= 0.0000 <S**2>=-0.0000 S=-0.0000
 <L.S>=  0.00000000000    
 Annihilation of the first spin contaminant:
 S**2 before annihilation    -0.0000,   after    -0.0000

 **********************************************************************

            Population analysis using the SCF Density.

 **********************************************************************

 Alpha  occ. eigenvalues --  -10.24830 -10.24806 -10.23961 -10.23958 -10.23943
 Alpha  occ. eigenvalues --  -10.23941 -10.23852 -10.23849 -10.23815 -10.23813
 Alpha  occ. eigenvalues --  -10.23812 -10.23810  -0.88825  -0.86855  -0.79113
 Alpha  occ. eigenvalues --   -0.76405  -0.76405  -0.73935  -0.63264  -0.61818
 Alpha  occ. eigenvalues --   -0.61818  -0.58972  -0.53822  -0.51126  -0.47003
 Alpha  occ. eigenvalues --   -0.46122  -0.46121  -0.45230  -0.42855  -0.42855
 Alpha  occ. eigenvalues --   -0.42254  -0.37507  -0.37506  -0.37419  -0.35020
 Alpha  occ. eigenvalues --   -0.35019  -0.33105  -0.26189  -0.25640  -0.25569
 Alpha  occ. eigenvalues --   -0.25565
 Alpha virt. eigenvalues --   -0.00235   0.00739   0.00739   0.01611   0.09602
 Alpha virt. eigenvalues --    0.11036   0.15348   0.15348   0.16530   0.17215
 Alpha virt. eigenvalues --    0.17218   0.17331   0.19624   0.19792   0.20373
 Alpha virt. eigenvalues --    0.20374   0.25369   0.29595   0.30906   0.31653
 Alpha virt. eigenvalues --    0.31656   0.32512   0.35670   0.35674   0.37214
 Alpha virt. eigenvalues --    0.47745   0.47751   0.54578   0.55043   0.55046
 Alpha virt. eigenvalues --    0.55453   0.56581   0.58016   0.58398   0.58431
 Alpha virt. eigenvalues --    0.58432   0.59602   0.61502   0.61518   0.61635
 Alpha virt. eigenvalues --    0.61636   0.63026   0.63046   0.63428   0.63777
 Alpha virt. eigenvalues --    0.63778   0.65944   0.69172   0.69174   0.74449
 Alpha virt. eigenvalues --    0.77626   0.77631   0.79734   0.79740   0.82779
 Alpha virt. eigenvalues --    0.85334   0.85579   0.85640   0.85642   0.86117
 Alpha virt. eigenvalues --    0.88307   0.88309   0.88511   0.91533   0.93871
 Alpha virt. eigenvalues --    0.96896   0.97081   0.97089   1.01432   1.03787
 Alpha virt. eigenvalues --    1.03794   1.10585   1.13044   1.13047   1.15748
 Alpha virt. eigenvalues --    1.17132   1.19581   1.19741   1.19748   1.25303
 Alpha virt. eigenvalues --    1.27387   1.27907   1.32742   1.42213   1.44286
 Alpha virt. eigenvalues --    1.44382   1.46352   1.46416   1.47694   1.50257
 Alpha virt. eigenvalues --    1.50596   1.50599   1.51716   1.52099   1.52214
 Alpha virt. eigenvalues --    1.70278   1.74361   1.74372   1.82101   1.82424
 Alpha virt. eigenvalues --    1.82429   1.83910   1.89216   1.91522   1.92747
 Alpha virt. eigenvalues --    1.94402   1.97771   1.97771   2.06754   2.06764
 Alpha virt. eigenvalues --    2.07485   2.07868   2.14042   2.15142   2.15450
 Alpha virt. eigenvalues --    2.15462   2.16669   2.19443   2.22763   2.22782
 Alpha virt. eigenvalues --    2.27932   2.32212   2.32215   2.34480   2.35384
 Alpha virt. eigenvalues --    2.36945   2.36963   2.52417   2.56103   2.58776
 Alpha virt. eigenvalues --    2.58789   2.64411   2.69406   2.69966   2.72555
 Alpha virt. eigenvalues --    2.72812   2.75196   2.75200   2.77569   2.79309
 Alpha virt. eigenvalues --    2.79952   2.79956   2.98863   3.07732   3.07741
 Alpha virt. eigenvalues --    3.39781   3.45638   4.12709   4.13021   4.15078
 Alpha virt. eigenvalues --    4.15078   4.19916   4.20137   4.36279   4.36280
 Alpha virt. eigenvalues --    4.40787   4.44857   4.69864   4.77832
  Beta  occ. eigenvalues --  -10.24830 -10.24806 -10.23961 -10.23958 -10.23943
  Beta  occ. eigenvalues --  -10.23941 -10.23852 -10.23849 -10.23815 -10.23813
  Beta  occ. eigenvalues --  -10.23812 -10.23810  -0.88825  -0.86855  -0.79113
  Beta  occ. eigenvalues --   -0.76405  -0.76405  -0.73935  -0.63264  -0.61818
  Beta  occ. eigenvalues --   -0.61818  -0.58972  -0.53822  -0.51126  -0.47003
  Beta  occ. eigenvalues --   -0.46122  -0.46121  -0.45230  -0.42855  -0.42855
  Beta  occ. eigenvalues --   -0.42254  -0.37507  -0.37506  -0.37419  -0.35020
  Beta  occ. eigenvalues --   -0.35019  -0.33105  -0.26189  -0.25640  -0.25569
  Beta  occ. eigenvalues --   -0.25565
  Beta virt. eigenvalues --   -0.00235   0.00739   0.00739   0.01611   0.09602
  Beta virt. eigenvalues --    0.11036   0.15348   0.15348   0.16530   0.17215
  Beta virt. eigenvalues --    0.17218   0.17331   0.19624   0.19792   0.20373
  Beta virt. eigenvalues --    0.20374   0.25369   0.29595   0.30906   0.31653
  Beta virt. eigenvalues --    0.31656   0.32512   0.35670   0.35674   0.37214
  Beta virt. eigenvalues --    0.47745   0.47751   0.54578   0.55043   0.55046
  Beta virt. eigenvalues --    0.55453   0.56581   0.58016   0.58398   0.58431
  Beta virt. eigenvalues --    0.58432   0.59602   0.61502   0.61518   0.61635
  Beta virt. eigenvalues --    0.61636   0.63026   0.63046   0.63428   0.63777
  Beta virt. eigenvalues --    0.63778   0.65944   0.69172   0.69174   0.74449
  Beta virt. eigenvalues --    0.77626   0.77631   0.79734   0.79740   0.82779
  Beta virt. eigenvalues --    0.85334   0.85579   0.85640   0.85642   0.86117
  Beta virt. eigenvalues --    0.88307   0.88309   0.88511   0.91533   0.93871
  Beta virt. eigenvalues --    0.96896   0.97081   0.97089   1.01432   1.03787
  Beta virt. eigenvalues --    1.03794   1.10585   1.13044   1.13047   1.15748
  Beta virt. eigenvalues --    1.17132   1.19581   1.19741   1.19748   1.25303
  Beta virt. eigenvalues --    1.27387   1.27907   1.32742   1.42213   1.44286
  Beta virt. eigenvalues --    1.44382   1.46352   1.46416   1.47694   1.50257
  Beta virt. eigenvalues --    1.50596   1.50599   1.51716   1.52099   1.52214
  Beta virt. eigenvalues --    1.70278   1.74361   1.74372   1.82101   1.82424
  Beta virt. eigenvalues --    1.82429   1.83910   1.89216   1.91522   1.92747
  Beta virt. eigenvalues --    1.94402   1.97771   1.97771   2.06754   2.06764
  Beta virt. eigenvalues --    2.07485   2.07868   2.14042   2.15142   2.15450
  Beta virt. eigenvalues --    2.15462   2.16669   2.19443   2.22763   2.22782
  Beta virt. eigenvalues --    2.27932   2.32212   2.32215   2.34480   2.35384
  Beta virt. eigenvalues --    2.36945   2.36963   2.52417   2.56103   2.58776
  Beta virt. eigenvalues --    2.58789   2.64411   2.69406   2.69966   2.72555
  Beta virt. eigenvalues --    2.72812   2.75196   2.75200   2.77569   2.79309
  Beta virt. eigenvalues --    2.79952   2.79956   2.98863   3.07732   3.07741
  Beta virt. eigenvalues --    3.39781   3.45638   4.12709   4.13021   4.15078
  Beta virt. eigenvalues --    4.15078   4.19916   4.20137   4.36279   4.36280
  Beta virt. eigenvalues --    4.40787   4.44857   4.69864   4.77832
          Condensed to atoms (all electrons):
               1          2          3          4          5          6
     1  C    4.878896   0.555917  -0.045558  -0.031580  -0.045560   0.556246
     2  C    0.555917   4.906860   0.524772  -0.029603  -0.042390  -0.034484
     3  C   -0.045558   0.524772   4.940733   0.557210  -0.047442  -0.042371
     4  C   -0.031580  -0.029603   0.557210   4.791754   0.557648  -0.029584
     5  C   -0.045560  -0.042390  -0.047442   0.557648   4.940775   0.524411
     6  C    0.556246  -0.034484  -0.042371  -0.029584   0.524411   4.906857
     7  H    0.365854  -0.038991   0.004148   0.000481   0.004149  -0.038995
     8  H   -0.038833   0.363362  -0.035579   0.003346   0.000669   0.003923
     9  H    0.004074  -0.039889   0.363698  -0.040126   0.004862   0.000232
    10  H    0.004075   0.000232   0.004859  -0.040124   0.363690  -0.039896
    11  H   -0.038822   0.003922   0.000669   0.003345  -0.035578   0.363373
    12  C    0.000531   0.005341  -0.048160   0.343057  -0.048168   0.005339
    13  C    0.000014  -0.000007  -0.000730  -0.048154  -0.000726  -0.000007
    14  C    0.000014  -0.000006  -0.000733  -0.048203  -0.000732  -0.000006
    15  C   -0.000000   0.000002  -0.000007   0.005343  -0.000006   0.000002
    16  H   -0.000007  -0.000056   0.001147  -0.004012   0.001144  -0.000056
    17  C   -0.000000   0.000002  -0.000006   0.005344  -0.000006   0.000002
    18  H   -0.000007  -0.000057   0.001146  -0.004013   0.001146  -0.000056
    19  C    0.000000  -0.000000   0.000014   0.000530   0.000014  -0.000000
    20  H    0.000000  -0.000000  -0.000001  -0.000154  -0.000001  -0.000000
    21  H    0.000000  -0.000000  -0.000001  -0.000154  -0.000001  -0.000000
    22  H   -0.000000   0.000000   0.000000   0.000004   0.000000   0.000000
               7          8          9         10         11         12
     1  C    0.365854  -0.038833   0.004074   0.004075  -0.038822   0.000531
     2  C   -0.038991   0.363362  -0.039889   0.000232   0.003922   0.005341
     3  C    0.004148  -0.035579   0.363698   0.004859   0.000669  -0.048160
     4  C    0.000481   0.003346  -0.040126  -0.040124   0.003345   0.343057
     5  C    0.004149   0.000669   0.004862   0.363690  -0.035578  -0.048168
     6  C   -0.038995   0.003923   0.000232  -0.039896   0.363373   0.005339
     7  H    0.543842  -0.004481  -0.000148  -0.000148  -0.004481   0.000004
     8  H   -0.004481   0.541764  -0.004314   0.000015  -0.000156  -0.000154
     9  H   -0.000148  -0.004314   0.536503  -0.000140   0.000015  -0.004005
    10  H   -0.000148   0.000015  -0.000140   0.536544  -0.004312  -0.004009
    11  H   -0.004481  -0.000156   0.000015  -0.004312   0.541724  -0.000154
    12  C    0.000004  -0.000154  -0.004005  -0.004009  -0.000154   4.791479
    13  C    0.000000  -0.000001   0.001144   0.001145  -0.000001   0.557327
    14  C    0.000000  -0.000001   0.001146   0.001143  -0.000001   0.557665
    15  C    0.000000  -0.000000  -0.000056  -0.000056  -0.000000  -0.029593
    16  H   -0.000000   0.000001   0.000153   0.000153   0.000001  -0.040144
    17  C    0.000000  -0.000000  -0.000056  -0.000056  -0.000000  -0.029589
    18  H   -0.000000   0.000001   0.000153   0.000153   0.000001  -0.040128
    19  C   -0.000000   0.000000  -0.000007  -0.000006   0.000000  -0.031580
    20  H   -0.000000   0.000000   0.000001   0.000001   0.000000   0.003344
    21  H   -0.000000   0.000000   0.000001   0.000001   0.000000   0.003344
    22  H   -0.000000  -0.000000  -0.000000  -0.000000  -0.000000   0.000482
              13         14         15         16         17         18
     1  C    0.000014   0.000014  -0.000000  -0.000007  -0.000000  -0.000007
     2  C   -0.000007  -0.000006   0.000002  -0.000056   0.000002  -0.000057
     3  C   -0.000730  -0.000733  -0.000007   0.001147  -0.000006   0.001146
     4  C   -0.048154  -0.048203   0.005343  -0.004012   0.005344  -0.004013
     5  C   -0.000726  -0.000732  -0.000006   0.001144  -0.000006   0.001146
     6  C   -0.000007  -0.000006   0.000002  -0.000056   0.000002  -0.000056
     7  H    0.000000   0.000000   0.000000  -0.000000   0.000000  -0.000000
     8  H   -0.000001  -0.000001  -0.000000   0.000001  -0.000000   0.000001
     9  H    0.001144   0.001146  -0.000056   0.000153  -0.000056   0.000153
    10  H    0.001145   0.001143  -0.000056   0.000153  -0.000056   0.000153
    11  H   -0.000001  -0.000001  -0.000000   0.000001  -0.000000   0.000001
    12  C    0.557327   0.557665  -0.029593  -0.040144  -0.029589  -0.040128
    13  C    4.940633  -0.047444   0.524754   0.363695  -0.042383   0.004865
    14  C   -0.047444   4.940774  -0.042389   0.004867   0.524404   0.363703
    15  C    0.524754  -0.042389   4.907022  -0.039903  -0.034481   0.000232
    16  H    0.363695   0.004867  -0.039903   0.536565   0.000232  -0.000141
    17  C   -0.042383   0.524404  -0.034481   0.000232   4.906878  -0.039898
    18  H    0.004865   0.363703   0.000232  -0.000141  -0.039898   0.536520
    19  C   -0.045551  -0.045550   0.555804   0.004075   0.556233   0.004074
    20  H   -0.035565   0.000669   0.363360  -0.004314   0.003918   0.000015
    21  H    0.000669  -0.035578   0.003918   0.000015   0.363356  -0.004312
    22  H    0.004145   0.004144  -0.038986  -0.000148  -0.038969  -0.000148
              19         20         21         22
     1  C    0.000000   0.000000   0.000000  -0.000000
     2  C   -0.000000  -0.000000  -0.000000   0.000000
     3  C    0.000014  -0.000001  -0.000001   0.000000
     4  C    0.000530  -0.000154  -0.000154   0.000004
     5  C    0.000014  -0.000001  -0.000001   0.000000
     6  C   -0.000000  -0.000000  -0.000000   0.000000
     7  H   -0.000000  -0.000000  -0.000000  -0.000000
     8  H    0.000000   0.000000   0.000000  -0.000000
     9  H   -0.000007   0.000001   0.000001  -0.000000
    10  H   -0.000006   0.000001   0.000001  -0.000000
    11  H    0.000000   0.000000   0.000000  -0.000000
    12  C   -0.031580   0.003344   0.003344   0.000482
    13  C   -0.045551  -0.035565   0.000669   0.004145
    14  C   -0.045550   0.000669  -0.035578   0.004144
    15  C    0.555804   0.363360   0.003918  -0.038986
    16  H    0.004075  -0.004314   0.000015  -0.000148
    17  C    0.556233   0.003918   0.363356  -0.038969
    18  H    0.004074   0.000015  -0.004312  -0.000148
    19  C    4.879050  -0.038810  -0.038814   0.365840
    20  H   -0.038810   0.541700  -0.000156  -0.004472
    21  H   -0.038814  -0.000156   0.541744  -0.004477
    22  H    0.365840  -0.004472  -0.004477   0.543812
          Atomic-Atomic Spin Densities.
               1          2          3          4          5          6
     1  C    0.000000   0.000000   0.000000   0.000000   0.000000   0.000000
     2  C    0.000000   0.000000   0.000000   0.000000   0.000000   0.000000
     3  C    0.000000   0.000000   0.000000   0.000000   0.000000   0.000000
     4  C    0.000000   0.000000   0.000000   0.000000   0.000000   0.000000
     5  C    0.000000   0.000000   0.000000   0.000000   0.000000   0.000000
     6  C    0.000000   0.000000   0.000000   0.000000   0.000000   0.000000
     7  H    0.000000   0.000000   0.000000   0.000000   0.000000   0.000000
     8  H    0.000000   0.000000   0.000000   0.000000   0.000000   0.000000
     9  H    0.000000   0.000000   0.000000   0.000000   0.000000   0.000000
    10  H    0.000000   0.000000   0.000000   0.000000   0.000000   0.000000
    11  H    0.000000   0.000000   0.000000   0.000000   0.000000   0.000000
    12  C    0.000000   0.000000   0.000000   0.000000   0.000000   0.000000
    13  C    0.000000   0.000000   0.000000   0.000000   0.000000   0.000000
    14  C    0.000000   0.000000   0.000000   0.000000   0.000000   0.000000
    15  C    0.000000   0.000000   0.000000   0.000000   0.000000   0.000000
    16  H    0.000000   0.000000   0.000000   0.000000   0.000000   0.000000
    17  C    0.000000   0.000000   0.000000   0.000000   0.000000   0.000000
    18  H    0.000000   0.000000   0.000000   0.000000   0.000000   0.000000
    19  C    0.000000   0.000000   0.000000   0.000000   0.000000   0.000000
    20  H    0.000000   0.000000   0.000000   0.000000   0.000000   0.000000
    21  H    0.000000   0.000000   0.000000   0.000000   0.000000   0.000000
    22  H    0.000000   0.000000   0.000000   0.000000   0.000000   0.000000
               7          8          9         10         11         12
     1  C    0.000000   0.000000   0.000000   0.000000   0.000000   0.000000
     2  C    0.000000   0.000000   0.000000   0.000000   0.000000   0.000000
     3  C    0.000000   0.000000   0.000000   0.000000   0.000000   0.000000
     4  C    0.000000   0.000000   0.000000   0.000000   0.000000   0.000000
     5  C    0.000000   0.000000   0.000000   0.000000   0.000000   0.000000
     6  C    0.000000   0.000000   0.000000   0.000000   0.000000   0.000000
     7  H    0.000000   0.000000   0.000000   0.000000   0.000000   0.000000
     8  H    0.000000   0.000000   0.000000   0.000000   0.000000   0.000000
     9  H    0.000000   0.000000   0.000000   0.000000   0.000000   0.000000
    10  H    0.000000   0.000000   0.000000   0.000000   0.000000   0.000000
    11  H    0.000000   0.000000   0.000000   0.000000   0.000000   0.000000
    12  C    0.000000   0.000000   0.000000   0.000000   0.000000   0.000000
    13  C    0.000000   0.000000   0.000000   0.000000   0.000000   0.000000
    14  C    0.000000   0.000000   0.000000   0.000000   0.000000   0.000000
    15  C    0.000000   0.000000   0.000000   0.000000   0.000000   0.000000
    16  H    0.000000   0.000000   0.000000   0.000000   0.000000   0.000000
    17  C    0.000000   0.000000   0.000000   0.000000   0.000000   0.000000
    18  H    0.000000   0.000000   0.000000   0.000000   0.000000   0.000000
    19  C    0.000000   0.000000   0.000000   0.000000   0.000000   0.000000
    20  H    0.000000   0.000000   0.000000   0.000000   0.000000   0.000000
    21  H    0.000000   0.000000   0.000000   0.000000   0.000000   0.000000
    22  H    0.000000   0.000000   0.000000   0.000000   0.000000   0.000000
              13         14         15         16         17         18
     1  C    0.000000   0.000000   0.000000   0.000000   0.000000   0.000000
     2  C    0.000000   0.000000   0.000000   0.000000   0.000000   0.000000
     3  C    0.000000   0.000000   0.000000   0.000000   0.000000   0.000000
     4  C    0.000000   0.000000   0.000000   0.000000   0.000000   0.000000
     5  C    0.000000   0.000000   0.000000   0.000000   0.000000   0.000000
     6  C    0.000000   0.000000   0.000000   0.000000   0.000000   0.000000
     7  H    0.000000   0.000000   0.000000   0.000000   0.000000   0.000000
     8  H    0.000000   0.000000   0.000000   0.000000   0.000000   0.000000
     9  H    0.000000   0.000000   0.000000   0.000000   0.000000   0.000000
    10  H    0.000000   0.000000   0.000000   0.000000   0.000000   0.000000
    11  H    0.000000   0.000000   0.000000   0.000000   0.000000   0.000000
    12  C    0.000000   0.000000   0.000000   0.000000   0.000000   0.000000
    13  C    0.000000   0.000000   0.000000   0.000000   0.000000   0.000000
    14  C    0.000000   0.000000   0.000000   0.000000   0.000000   0.000000
    15  C    0.000000   0.000000   0.000000   0.000000   0.000000   0.000000
    16  H    0.000000   0.000000   0.000000   0.000000   0.000000   0.000000
    17  C    0.000000   0.000000   0.000000   0.000000   0.000000   0.000000
    18  H    0.000000   0.000000   0.000000   0.000000   0.000000   0.000000
    19  C    0.000000   0.000000   0.000000   0.000000   0.000000   0.000000
    20  H    0.000000   0.000000   0.000000   0.000000   0.000000   0.000000
    21  H    0.000000   0.000000   0.000000   0.000000   0.000000   0.000000
    22  H    0.000000   0.000000   0.000000   0.000000   0.000000   0.000000
              19         20         21         22
     1  C    0.000000   0.000000   0.000000   0.000000
     2  C    0.000000   0.000000   0.000000   0.000000
     3  C    0.000000   0.000000   0.000000   0.000000
     4  C    0.000000   0.000000   0.000000   0.000000
     5  C    0.000000   0.000000   0.000000   0.000000
     6  C    0.000000   0.000000   0.000000   0.000000
     7  H    0.000000   0.000000   0.000000   0.000000
     8  H    0.000000   0.000000   0.000000   0.000000
     9  H    0.000000   0.000000   0.000000   0.000000
    10  H    0.000000   0.000000   0.000000   0.000000
    11  H    0.000000   0.000000   0.000000   0.000000
    12  C    0.000000   0.000000   0.000000   0.000000
    13  C    0.000000   0.000000   0.000000   0.000000
    14  C    0.000000   0.000000   0.000000   0.000000
    15  C    0.000000   0.000000   0.000000   0.000000
    16  H    0.000000   0.000000   0.000000   0.000000
    17  C    0.000000   0.000000   0.000000   0.000000
    18  H    0.000000   0.000000   0.000000   0.000000
    19  C    0.000000   0.000000   0.000000   0.000000
    20  H    0.000000   0.000000   0.000000   0.000000
    21  H    0.000000   0.000000   0.000000   0.000000
    22  H    0.000000   0.000000   0.000000   0.000000
 Mulliken charges and spin densities:
               1          2
     1  C   -0.165255   0.000000
     2  C   -0.174930   0.000000
     3  C   -0.177807   0.000000
     4  C    0.007644   0.000000
     5  C   -0.177898   0.000000
     6  C   -0.174930   0.000000
     7  H    0.168764   0.000000
     8  H    0.170437   0.000000
     9  H    0.176760   0.000000
    10  H    0.176736   0.000000
    11  H    0.170455   0.000000
    12  C    0.007770   0.000000
    13  C   -0.177825   0.000000
    14  C   -0.177889   0.000000
    15  C   -0.174962   0.000000
    16  H    0.176734   0.000000
    17  C   -0.174922   0.000000
    18  H    0.176751   0.000000
    19  C   -0.165315   0.000000
    20  H    0.170465   0.000000
    21  H    0.170444   0.000000
    22  H    0.168772   0.000000
 Sum of Mulliken charges =  -0.00000   0.00000
 Mulliken charges and spin densities with hydrogens summed into heavy atoms:
               1          2
     1  C    0.003510   0.000000
     2  C   -0.004492   0.000000
     3  C   -0.001047   0.000000
     4  C    0.007644   0.000000
     5  C   -0.001162   0.000000
     6  C   -0.004475   0.000000
    12  C    0.007770   0.000000
    13  C   -0.001091   0.000000
    14  C   -0.001138   0.000000
    15  C   -0.004497   0.000000
    17  C   -0.004478   0.000000
    19  C    0.003457   0.000000
         Mulliken charges and spin densities condensed to fragments:
      1     -0.000024      0.000000
      2      0.000024      0.000000
 Electronic spatial extent (au):  <R**2>=           7238.9888
 Charge=             -0.0000 electrons
 Dipole moment (field-independent basis, Debye):
    X=              0.0005    Y=             -0.0006    Z=              0.0006  Tot=              0.0010
 Quadrupole moment (field-independent basis, Debye-Ang):
   XX=            -65.8748   YY=            -62.2658   ZZ=            -67.6947
   XY=              3.1382   XZ=             -0.0021   YZ=             -0.0035
 Traceless Quadrupole moment (field-independent basis, Debye-Ang):
   XX=             -0.5964   YY=              3.0126   ZZ=             -2.4163
   XY=              3.1382   XZ=             -0.0021   YZ=             -0.0035
 Octapole moment (field-independent basis, Debye-Ang**2):
  XXX=           -819.3204  YYY=           -136.3926  ZZZ=              0.2087  XYY=           -236.5389
  XXY=            -22.4568  XXZ=              0.0245  XZZ=           -264.9079  YZZ=            -29.8538
  YYZ=              0.0970  XYZ=             -0.0347
 Hexadecapole moment (field-independent basis, Debye-Ang**3):
 XXXX=          -7636.2038 YYYY=          -2025.8089 ZZZZ=           -301.9964 XXXY=           -896.0342
 XXXZ=              0.6011 YYYX=           -919.6713 YYYZ=              0.3451 ZZZX=              0.9408
 ZZZY=              0.3522 XXYY=          -1351.3638 XXZZ=          -1245.3866 YYZZ=           -396.5271
 XXYZ=             -0.1819 YYXZ=              0.3632 ZZXY=           -268.2191
 N-N= 5.965893533076D+02 E-N=-2.264949030964D+03  KE= 4.583236800460D+02

 Atomic contributions to Alpha molecular orbitals:
 Alpha occ 22 OE=-0.590 is C14-p=0.0700
                           Fr2=0.50 Fr1=0.50
 Alpha occ 23 OE=-0.538 is C12-p=0.0690
                           Fr1=0.50 Fr2=0.50
 Alpha occ 24 OE=-0.511 is C1-p=0.1197 C19-p=0.1197
                           Fr2=0.50 Fr1=0.50
 Alpha occ 25 OE=-0.470 is H7-s=0.0408
                           Fr1=0.50 Fr2=0.50
 Alpha occ 26 OE=-0.461 is C4-p=0.1004
                           Fr1=0.58 Fr2=0.42
 Alpha occ 27 OE=-0.461 is C12-p=0.1004
                           Fr2=0.58 Fr1=0.42
 Alpha occ 28 OE=-0.452 is C15-p=0.0697
                           Fr2=0.50 Fr1=0.50
 Alpha occ 29 OE=-0.429 is C17-p=0.0904
                           Fr2=0.57 Fr1=0.43
 Alpha occ 30 OE=-0.429 is C2-p=0.0903
                           Fr1=0.57 Fr2=0.43
 Alpha occ 31 OE=-0.423 is C19-p=0.1289 C1-p=0.1288 C4-p=0.1173 C12-p=0.1173
                           Fr2=0.50 Fr1=0.50
 Alpha occ 32 OE=-0.375 is C19-p=0.0964
                           Fr2=0.56 Fr1=0.44
 Alpha occ 33 OE=-0.375 is C1-p=0.0965
                           Fr1=0.56 Fr2=0.44
 Alpha occ 34 OE=-0.374 is C1-p=0.1080 C19-p=0.1080 H7-s=0.1018 H22-s=0.1018
                           Fr1=0.50 Fr2=0.50
 Alpha occ 35 OE=-0.350 is C19-p=0.0793
                           Fr2=0.60 Fr1=0.40
 Alpha occ 36 OE=-0.350 is C1-p=0.0792
                           Fr1=0.60 Fr2=0.40
 Alpha occ 37 OE=-0.331 is C4-p=0.1254 C12-p=0.1253
                           Fr1=0.50 Fr2=0.50
 Alpha occ 38 OE=-0.262 is C13-p=0.1296 C5-p=0.1296 C3-p=0.1291 C14-p=0.1291 C2-p=0.1183 C17-p=0.1181 C15-p=0.1179 C6-p=0.1177
                           Fr2=0.50 Fr1=0.50
 Alpha occ 39 OE=-0.256 is C17-p=0.1311 C2-p=0.1301 C6-p=0.1259 C15-p=0.1249 C13-p=0.1227 C5-p=0.1214 C3-p=0.1173 C14-p=0.1161
                           Fr2=0.50 Fr1=0.50
 Alpha occ 40 OE=-0.256 is C1-p=0.1620 C19-p=0.1580 C4-p=0.1550 C12-p=0.1512
                           Fr1=0.51 Fr2=0.49
 Alpha occ 41 OE=-0.256 is C19-p=0.1620 C1-p=0.1580 C12-p=0.1549 C4-p=0.1513
                           Fr2=0.51 Fr1=0.49
 Alpha vir 42 OE=-0.002 is C15-p=0.1276 C6-p=0.1275 C2-p=0.1271 C17-p=0.1270 C3-p=0.1169 C14-p=0.1167 C13-p=0.1165 C5-p=0.1163
                           Fr2=0.50 Fr1=0.50
 Alpha vir 43 OE=0.007 is C19-p=0.2176 C12-p=0.2069 C1-p=0.1036
                          Fr2=0.67 Fr1=0.33
 Alpha vir 44 OE=0.007 is C1-p=0.2175 C4-p=0.2070 C19-p=0.1036
                          Fr1=0.67 Fr2=0.33
 Alpha vir 45 OE=0.016 is C13-p=0.1265 C5-p=0.1264 C3-p=0.1259 C14-p=0.1257 C2-p=0.1185 C17-p=0.1184 C15-p=0.1178 C6-p=0.1178
                          Fr1=0.50 Fr2=0.50
 Alpha vir 46 OE=0.096 is H21-s=0.0916
                          Fr2=0.50 Fr1=0.50
 Alpha vir 47 OE=0.110 is H7-s=0.1402 H22-s=0.1402 H21-s=0.1017 H8-s=0.1017 H20-s=0.1017 H11-s=0.1017
                          Fr1=0.50 Fr2=0.50
 Alpha vir 48 OE=0.153 is H21-s=0.1652 H20-s=0.1648 H16-s=0.1183 H18-s=0.1183
                          Fr2=0.61 Fr1=0.39
 Alpha vir 49 OE=0.153 is H8-s=0.1650 H11-s=0.1648 H10-s=0.1188 H9-s=0.1181
                          Fr1=0.61 Fr2=0.39
 Alpha vir 50 OE=0.165 is H7-s=0.1992 H22-s=0.1986 H9-s=0.1147 H16-s=0.1139 H10-s=0.1134 H18-s=0.1131
                          Fr1=0.50 Fr2=0.50
 Alpha vir 51 OE=0.172 is C15-p=0.0893
                          Fr2=0.57 Fr1=0.43
 Alpha vir 52 OE=0.172 is C2-p=0.0893
                          Fr1=0.57 Fr2=0.43
 Alpha vir 53 OE=0.173 is H18-s=0.1774 H9-s=0.1757 H10-s=0.1732 H16-s=0.1726 H22-s=0.1299 H7-s=0.1290
                          Fr2=0.50 Fr1=0.50
 Alpha vir 54 OE=0.196 is H22-s=0.2115 H7-s=0.1994 H20-s=0.1393 H21-s=0.1391 H8-s=0.1312 H11-s=0.1302
                          Fr2=0.52 Fr1=0.48
 Alpha vir 55 OE=0.198 is H7-s=0.1941 H22-s=0.1818 H8-s=0.1428 H11-s=0.1428 H20-s=0.1344 H21-s=0.1341
                          Fr1=0.52 Fr2=0.48
 Alpha vir 56 OE=0.204 is H10-s=0.1583 H9-s=0.1579 H11-s=0.1569 H8-s=0.1563
                          Fr1=0.69 Fr2=0.31
 Alpha vir 57 OE=0.204 is H18-s=0.1583 H16-s=0.1583 H20-s=0.1566 H21-s=0.1562
                          Fr2=0.69 Fr1=0.31
 Alpha vir 58 OE=0.254 is C4-s=0.1636 C12-s=0.1636
                          Fr2=0.50 Fr1=0.50
 Alpha vir 59 OE=0.296 is C3-p=0.1487 C13-p=0.1480 C5-p=0.1476 C14-p=0.1469
                          Fr1=0.50 Fr2=0.50
 Alpha vir 60 OE=0.309 is C14-p=0.1027 C5-p=0.1013 C13-p=0.1001 C3-p=0.1001
                          Fr2=0.50 Fr1=0.50
 Alpha vir 61 OE=0.317 is C19-p=0.3712 C17-p=0.1060 C15-p=0.1058
                          Fr2=0.95

 Atomic contributions to Beta  molecular orbitals:
 Beta  occ 22 OE=-0.590 is C14-p=0.0700
                           Fr2=0.50 Fr1=0.50
 Beta  occ 23 OE=-0.538 is C12-p=0.0690
                           Fr1=0.50 Fr2=0.50
 Beta  occ 24 OE=-0.511 is C1-p=0.1197 C19-p=0.1197
                           Fr2=0.50 Fr1=0.50
 Beta  occ 25 OE=-0.470 is H7-s=0.0408
                           Fr1=0.50 Fr2=0.50
 Beta  occ 26 OE=-0.461 is C4-p=0.1004
                           Fr1=0.58 Fr2=0.42
 Beta  occ 27 OE=-0.461 is C12-p=0.1004
                           Fr2=0.58 Fr1=0.42
 Beta  occ 28 OE=-0.452 is C15-p=0.0697
                           Fr2=0.50 Fr1=0.50
 Beta  occ 29 OE=-0.429 is C17-p=0.0904
                           Fr2=0.57 Fr1=0.43
 Beta  occ 30 OE=-0.429 is C2-p=0.0903
                           Fr1=0.57 Fr2=0.43
 Beta  occ 31 OE=-0.423 is C19-p=0.1289 C1-p=0.1288 C4-p=0.1173 C12-p=0.1173
                           Fr2=0.50 Fr1=0.50
 Beta  occ 32 OE=-0.375 is C19-p=0.0964
                           Fr2=0.56 Fr1=0.44
 Beta  occ 33 OE=-0.375 is C1-p=0.0965
                           Fr1=0.56 Fr2=0.44
 Beta  occ 34 OE=-0.374 is C1-p=0.1080 C19-p=0.1080 H7-s=0.1018 H22-s=0.1018
                           Fr1=0.50 Fr2=0.50
 Beta  occ 35 OE=-0.350 is C19-p=0.0793
                           Fr2=0.60 Fr1=0.40
 Beta  occ 36 OE=-0.350 is C1-p=0.0792
                           Fr1=0.60 Fr2=0.40
 Beta  occ 37 OE=-0.331 is C4-p=0.1254 C12-p=0.1253
                           Fr1=0.50 Fr2=0.50
 Beta  occ 38 OE=-0.262 is C13-p=0.1296 C5-p=0.1296 C3-p=0.1291 C14-p=0.1291 C2-p=0.1183 C17-p=0.1181 C15-p=0.1179 C6-p=0.1177
                           Fr2=0.50 Fr1=0.50
 Beta  occ 39 OE=-0.256 is C17-p=0.1311 C2-p=0.1301 C6-p=0.1259 C15-p=0.1249 C13-p=0.1227 C5-p=0.1214 C3-p=0.1173 C14-p=0.1161
                           Fr2=0.50 Fr1=0.50
 Beta  occ 40 OE=-0.256 is C1-p=0.1620 C19-p=0.1580 C4-p=0.1550 C12-p=0.1512
                           Fr1=0.51 Fr2=0.49
 Beta  occ 41 OE=-0.256 is C19-p=0.1620 C1-p=0.1580 C12-p=0.1549 C4-p=0.1513
                           Fr2=0.51 Fr1=0.49
 Beta  vir 42 OE=-0.002 is C15-p=0.1276 C6-p=0.1275 C2-p=0.1271 C17-p=0.1270 C3-p=0.1169 C14-p=0.1167 C13-p=0.1165 C5-p=0.1163
                           Fr2=0.50 Fr1=0.50
 Beta  vir 43 OE=0.007 is C19-p=0.2176 C12-p=0.2069 C1-p=0.1036
                          Fr2=0.67 Fr1=0.33
 Beta  vir 44 OE=0.007 is C1-p=0.2175 C4-p=0.2070 C19-p=0.1036
                          Fr1=0.67 Fr2=0.33
 Beta  vir 45 OE=0.016 is C13-p=0.1265 C5-p=0.1264 C3-p=0.1259 C14-p=0.1257 C2-p=0.1185 C17-p=0.1184 C15-p=0.1178 C6-p=0.1178
                          Fr1=0.50 Fr2=0.50
 Beta  vir 46 OE=0.096 is H21-s=0.0916
                          Fr2=0.50 Fr1=0.50
 Beta  vir 47 OE=0.110 is H7-s=0.1402 H22-s=0.1402 H21-s=0.1017 H8-s=0.1017 H20-s=0.1017 H11-s=0.1017
                          Fr1=0.50 Fr2=0.50
 Beta  vir 48 OE=0.153 is H21-s=0.1652 H20-s=0.1648 H16-s=0.1183 H18-s=0.1183
                          Fr2=0.61 Fr1=0.39
 Beta  vir 49 OE=0.153 is H8-s=0.1650 H11-s=0.1648 H10-s=0.1188 H9-s=0.1181
                          Fr1=0.61 Fr2=0.39
 Beta  vir 50 OE=0.165 is H7-s=0.1992 H22-s=0.1986 H9-s=0.1147 H16-s=0.1139 H10-s=0.1134 H18-s=0.1131
                          Fr1=0.50 Fr2=0.50
 Beta  vir 51 OE=0.172 is C15-p=0.0893
                          Fr2=0.57 Fr1=0.43
 Beta  vir 52 OE=0.172 is C2-p=0.0893
                          Fr1=0.57 Fr2=0.43
 Beta  vir 53 OE=0.173 is H18-s=0.1774 H9-s=0.1757 H10-s=0.1732 H16-s=0.1726 H22-s=0.1299 H7-s=0.1290
                          Fr2=0.50 Fr1=0.50
 Beta  vir 54 OE=0.196 is H22-s=0.2115 H7-s=0.1994 H20-s=0.1393 H21-s=0.1391 H8-s=0.1312 H11-s=0.1302
                          Fr2=0.52 Fr1=0.48
 Beta  vir 55 OE=0.198 is H7-s=0.1941 H22-s=0.1818 H8-s=0.1428 H11-s=0.1428 H20-s=0.1344 H21-s=0.1341
                          Fr1=0.52 Fr2=0.48
 Beta  vir 56 OE=0.204 is H10-s=0.1583 H9-s=0.1579 H11-s=0.1569 H8-s=0.1563
                          Fr1=0.69 Fr2=0.31
 Beta  vir 57 OE=0.204 is H18-s=0.1583 H16-s=0.1583 H20-s=0.1566 H21-s=0.1562
                          Fr2=0.69 Fr1=0.31
 Beta  vir 58 OE=0.254 is C4-s=0.1636 C12-s=0.1636
                          Fr2=0.50 Fr1=0.50
 Beta  vir 59 OE=0.296 is C3-p=0.1487 C13-p=0.1480 C5-p=0.1476 C14-p=0.1469
                          Fr1=0.50 Fr2=0.50
 Beta  vir 60 OE=0.309 is C14-p=0.1027 C5-p=0.1013 C13-p=0.1001 C3-p=0.1001
                          Fr2=0.50 Fr1=0.50
 Beta  vir 61 OE=0.317 is C19-p=0.3712 C17-p=0.1060 C15-p=0.1058
                          Fr2=0.95
 
                          Isotropic Fermi Contact Couplings
        Atom                 a.u.       MegaHertz       Gauss      10(-4) cm-1
     1  C(13)              0.00000       0.00000       0.00000       0.00000
     2  C(13)              0.00000       0.00000       0.00000       0.00000
     3  C(13)              0.00000       0.00000       0.00000       0.00000
     4  C(13)              0.00000       0.00000       0.00000       0.00000
     5  C(13)              0.00000       0.00000       0.00000       0.00000
     6  C(13)              0.00000       0.00000       0.00000       0.00000
     7  H(1)               0.00000       0.00000       0.00000       0.00000
     8  H(1)               0.00000       0.00000       0.00000       0.00000
     9  H(1)               0.00000       0.00000       0.00000       0.00000
    10  H(1)               0.00000       0.00000       0.00000       0.00000
    11  H(1)               0.00000       0.00000       0.00000       0.00000
    12  C(13)              0.00000       0.00000       0.00000       0.00000
    13  C(13)              0.00000       0.00000       0.00000       0.00000
    14  C(13)              0.00000       0.00000       0.00000       0.00000
    15  C(13)              0.00000       0.00000       0.00000       0.00000
    16  H(1)               0.00000       0.00000       0.00000       0.00000
    17  C(13)              0.00000       0.00000       0.00000       0.00000
    18  H(1)               0.00000       0.00000       0.00000       0.00000
    19  C(13)              0.00000       0.00000       0.00000       0.00000
    20  H(1)               0.00000       0.00000       0.00000       0.00000
    21  H(1)               0.00000       0.00000       0.00000       0.00000
    22  H(1)               0.00000       0.00000       0.00000       0.00000
 --------------------------------------------------------
       Center         ----  Spin Dipole Couplings  ----
                      3XX-RR        3YY-RR        3ZZ-RR
 --------------------------------------------------------
     1   Atom        0.000000      0.000000      0.000000
     2   Atom        0.000000      0.000000      0.000000
     3   Atom        0.000000      0.000000      0.000000
     4   Atom        0.000000      0.000000      0.000000
     5   Atom        0.000000      0.000000      0.000000
     6   Atom        0.000000      0.000000      0.000000
     7   Atom        0.000000      0.000000      0.000000
     8   Atom        0.000000      0.000000      0.000000
     9   Atom        0.000000      0.000000      0.000000
    10   Atom        0.000000      0.000000      0.000000
    11   Atom        0.000000      0.000000      0.000000
    12   Atom        0.000000      0.000000      0.000000
    13   Atom        0.000000      0.000000      0.000000
    14   Atom        0.000000      0.000000      0.000000
    15   Atom        0.000000      0.000000      0.000000
    16   Atom        0.000000      0.000000      0.000000
    17   Atom        0.000000      0.000000      0.000000
    18   Atom        0.000000      0.000000      0.000000
    19   Atom        0.000000      0.000000      0.000000
    20   Atom        0.000000      0.000000      0.000000
    21   Atom        0.000000      0.000000      0.000000
    22   Atom        0.000000      0.000000      0.000000
 --------------------------------------------------------
                        XY            XZ            YZ
 --------------------------------------------------------
     1   Atom        0.000000      0.000000      0.000000
     2   Atom        0.000000      0.000000      0.000000
     3   Atom        0.000000      0.000000      0.000000
     4   Atom        0.000000      0.000000      0.000000
     5   Atom        0.000000      0.000000      0.000000
     6   Atom        0.000000      0.000000      0.000000
     7   Atom        0.000000      0.000000      0.000000
     8   Atom        0.000000      0.000000      0.000000
     9   Atom        0.000000      0.000000      0.000000
    10   Atom        0.000000      0.000000      0.000000
    11   Atom        0.000000      0.000000      0.000000
    12   Atom        0.000000      0.000000      0.000000
    13   Atom        0.000000      0.000000      0.000000
    14   Atom        0.000000      0.000000      0.000000
    15   Atom        0.000000      0.000000      0.000000
    16   Atom        0.000000      0.000000      0.000000
    17   Atom        0.000000      0.000000      0.000000
    18   Atom        0.000000      0.000000      0.000000
    19   Atom        0.000000      0.000000      0.000000
    20   Atom        0.000000      0.000000      0.000000
    21   Atom        0.000000      0.000000      0.000000
    22   Atom        0.000000      0.000000      0.000000
 --------------------------------------------------------


 ---------------------------------------------------------------------------------
              Anisotropic Spin Dipole Couplings in Principal Axis System
 ---------------------------------------------------------------------------------

       Atom             a.u.   MegaHertz   Gauss  10(-4) cm-1        Axes

              Baa     0.0000     0.000     0.000     0.000  1.0000  0.0000  0.0000
     1 C(13)  Bbb     0.0000     0.000     0.000     0.000 -0.0000  1.0000  0.0000
              Bcc     0.0000     0.000     0.000     0.000  0.0000  0.0000  1.0000
 
              Baa     0.0000     0.000     0.000     0.000  1.0000  0.0000  0.0000
     2 C(13)  Bbb     0.0000     0.000     0.000     0.000 -0.0000  1.0000  0.0000
              Bcc     0.0000     0.000     0.000     0.000  0.0000  0.0000  1.0000
 
              Baa     0.0000     0.000     0.000     0.000  1.0000  0.0000  0.0000
     3 C(13)  Bbb     0.0000     0.000     0.000     0.000 -0.0000  1.0000  0.0000
              Bcc     0.0000     0.000     0.000     0.000  0.0000  0.0000  1.0000
 
              Baa     0.0000     0.000     0.000     0.000  1.0000  0.0000  0.0000
     4 C(13)  Bbb     0.0000     0.000     0.000     0.000 -0.0000  1.0000  0.0000
              Bcc     0.0000     0.000     0.000     0.000  0.0000  0.0000  1.0000
 
              Baa     0.0000     0.000     0.000     0.000  1.0000  0.0000  0.0000
     5 C(13)  Bbb     0.0000     0.000     0.000     0.000 -0.0000  1.0000  0.0000
              Bcc     0.0000     0.000     0.000     0.000  0.0000  0.0000  1.0000
 
              Baa     0.0000     0.000     0.000     0.000  1.0000  0.0000  0.0000
     6 C(13)  Bbb     0.0000     0.000     0.000     0.000 -0.0000  1.0000  0.0000
              Bcc     0.0000     0.000     0.000     0.000  0.0000  0.0000  1.0000
 
              Baa     0.0000     0.000     0.000     0.000  1.0000  0.0000  0.0000
     7 H(1)   Bbb     0.0000     0.000     0.000     0.000 -0.0000  1.0000  0.0000
              Bcc     0.0000     0.000     0.000     0.000  0.0000  0.0000  1.0000
 
              Baa     0.0000     0.000     0.000     0.000  1.0000  0.0000  0.0000
     8 H(1)   Bbb     0.0000     0.000     0.000     0.000 -0.0000  1.0000  0.0000
              Bcc     0.0000     0.000     0.000     0.000  0.0000  0.0000  1.0000
 
              Baa     0.0000     0.000     0.000     0.000  1.0000  0.0000  0.0000
     9 H(1)   Bbb     0.0000     0.000     0.000     0.000 -0.0000  1.0000  0.0000
              Bcc     0.0000     0.000     0.000     0.000  0.0000  0.0000  1.0000
 
              Baa     0.0000     0.000     0.000     0.000  1.0000  0.0000  0.0000
    10 H(1)   Bbb     0.0000     0.000     0.000     0.000 -0.0000  1.0000  0.0000
              Bcc     0.0000     0.000     0.000     0.000  0.0000  0.0000  1.0000
 
              Baa     0.0000     0.000     0.000     0.000  1.0000  0.0000  0.0000
    11 H(1)   Bbb     0.0000     0.000     0.000     0.000 -0.0000  1.0000  0.0000
              Bcc     0.0000     0.000     0.000     0.000  0.0000  0.0000  1.0000
 
              Baa     0.0000     0.000     0.000     0.000  1.0000  0.0000  0.0000
    12 C(13)  Bbb     0.0000     0.000     0.000     0.000 -0.0000  1.0000  0.0000
              Bcc     0.0000     0.000     0.000     0.000  0.0000  0.0000  1.0000
 
              Baa     0.0000     0.000     0.000     0.000  1.0000  0.0000  0.0000
    13 C(13)  Bbb     0.0000     0.000     0.000     0.000 -0.0000  1.0000  0.0000
              Bcc     0.0000     0.000     0.000     0.000  0.0000  0.0000  1.0000
 
              Baa     0.0000     0.000     0.000     0.000  1.0000  0.0000  0.0000
    14 C(13)  Bbb     0.0000     0.000     0.000     0.000 -0.0000  1.0000  0.0000
              Bcc     0.0000     0.000     0.000     0.000  0.0000  0.0000  1.0000
 
              Baa     0.0000     0.000     0.000     0.000  1.0000  0.0000  0.0000
    15 C(13)  Bbb     0.0000     0.000     0.000     0.000 -0.0000  1.0000  0.0000
              Bcc     0.0000     0.000     0.000     0.000  0.0000  0.0000  1.0000
 
              Baa     0.0000     0.000     0.000     0.000  1.0000  0.0000  0.0000
    16 H(1)   Bbb     0.0000     0.000     0.000     0.000 -0.0000  1.0000  0.0000
              Bcc     0.0000     0.000     0.000     0.000  0.0000  0.0000  1.0000
 
              Baa     0.0000     0.000     0.000     0.000  1.0000  0.0000  0.0000
    17 C(13)  Bbb     0.0000     0.000     0.000     0.000 -0.0000  1.0000  0.0000
              Bcc     0.0000     0.000     0.000     0.000  0.0000  0.0000  1.0000
 
              Baa     0.0000     0.000     0.000     0.000  1.0000  0.0000  0.0000
    18 H(1)   Bbb     0.0000     0.000     0.000     0.000 -0.0000  1.0000  0.0000
              Bcc     0.0000     0.000     0.000     0.000  0.0000  0.0000  1.0000
 
              Baa     0.0000     0.000     0.000     0.000  1.0000  0.0000  0.0000
    19 C(13)  Bbb     0.0000     0.000     0.000     0.000 -0.0000  1.0000  0.0000
              Bcc     0.0000     0.000     0.000     0.000  0.0000  0.0000  1.0000
 
              Baa     0.0000     0.000     0.000     0.000  1.0000  0.0000  0.0000
    20 H(1)   Bbb     0.0000     0.000     0.000     0.000 -0.0000  1.0000  0.0000
              Bcc     0.0000     0.000     0.000     0.000  0.0000  0.0000  1.0000
 
              Baa     0.0000     0.000     0.000     0.000  1.0000  0.0000  0.0000
    21 H(1)   Bbb     0.0000     0.000     0.000     0.000 -0.0000  1.0000  0.0000
              Bcc     0.0000     0.000     0.000     0.000  0.0000  0.0000  1.0000
 
              Baa     0.0000     0.000     0.000     0.000  1.0000  0.0000  0.0000
    22 H(1)   Bbb     0.0000     0.000     0.000     0.000 -0.0000  1.0000  0.0000
              Bcc     0.0000     0.000     0.000     0.000  0.0000  0.0000  1.0000
 

 ---------------------------------------------------------------------------------

 Unable to Open any file for archive entry.
 1\1\GINC-CMP0013\SP\UPBE1PBE\6-31G(d)\C12H10\VICTORIA.OAS\27-Mar-2023\
 0\\# pop=(orbitals=20) nosymm upbe1pbe/6-31g*\\Title Card Required\\0,
 1\C,0,2.26402184,-2.41450065,0.\C,0,3.65918184,-2.41450065,0.\C,0,4.35
 671984,-1.20674965,0.\C,0,3.65906584,0.00175935,-0.001199\C,0,2.264240
 84,0.00168135,-0.001678\C,0,1.56663984,-1.20652465,-0.000682\H,0,1.714
 26284,-3.36681765,0.00045\H,0,4.20868984,-3.36701365,0.001315\H,0,5.45
 639984,-1.20666965,0.000634\H,0,1.71411884,0.95396235,-0.002631\H,0,0.
 46703584,-1.20634165,-0.000862\C,0,4.42956991,1.33514732,-0.00128162\C
 ,0,4.77902209,1.93874423,-1.20959672\C,0,4.77799174,1.93947105,1.20658
 558\C,0,5.47732881,3.14605088,-1.20994907\H,0,4.5048593,1.46166447,-2.
 16168466\C,0,5.47564932,3.14764478,1.20640589\H,0,4.50249236,1.4639697
 4,2.15901805\C,0,5.82546605,3.75091541,-0.00157996\H,0,5.75335424,3.62
 155495,-2.16231578\H,0,5.7498711,3.62410371,2.15890971\H,0,6.37600461,
 4.70286254,-0.00210779\\Version=ES64L-G16RevC.02\HF=-462.7435419\S2=0.
 \S2-1=0.\S2A=0.\RMSD=6.315e-09\Dipole=0.0001896,-0.0002294,0.0002459\Q
 uadrupole=-0.4433734,2.2398177,-1.7964442,2.3332012,-0.001548,-0.00261
 44\PG=C01 [X(C12H10)]\\@
 The archive entry for this job was punched.


 YOU KNOW YOU'VE SPOKEN TOO LONG WHEN THE AUDIENCE STOPS LOOKING AT
 THEIR WATCHES AND STARTS SHAKING THEM.
 Job cpu time:       0 days  0 hours  1 minutes  5.3 seconds.
 Elapsed time:       0 days  0 hours  0 minutes 33.7 seconds.
 File lengths (MBytes):  RWF=    152 Int=      0 D2E=      0 Chk=     16 Scr=     16
 Normal termination of Gaussian 16 at Mon Mar 27 17:34:46 2023.
